data_I

_pd_block_id      Na0.5K0.5NbO310K


loop_
      _pd_proc_point_id                    
      _pd_proc_2theta_corrected             
      _pd_proc_intensity_net               
      _pd_calc_intensity_net               
      _pd_proc_ls_weight                   
1	    11.0900	  1802	  1792.8     0.55494
2	    11.1900	  1771	  1792.8     0.56465
3	    11.2900	  1759	  1792.8     0.5685
4	    11.3900	  1870	  1792.8     0.53476
5	    11.4900	  1808	  1792.8     0.5531
6	    11.5900	  1792	  1792.8     0.55804
7	    11.6900	  1796	  1792.8     0.55679
8	    11.7900	  1834	  1792.8     0.54526
9	    11.8900	  1844	  1792.8     0.5423
10	    11.9900	  1872	  1792.8     0.53419
11	    12.0900	  1873	  1792.8     0.5339
12	    12.1900	  1755	  1792.8     0.5698
13	    12.2900	  1763	  1792.8     0.56721
14	    12.3900	  1790	  1792.8     0.55866
15	    12.4900	  1852	  1792.8     0.53996
16	    12.5900	  1810	  1792.8     0.55249
17	    12.6900	  1893	  1792.8     0.52826
18	    12.7900	  1778	  1792.8     0.56243
19	    12.8900	  1817	  1792.9     0.55036
20	    12.9900	  1832	  1792.8     0.54585
21	    13.0900	  1791	  1792.6     0.55835
22	    13.1900	  1737	  1792.5     0.57571
23	    13.2900	  1884	  1792.4     0.53079
24	    13.3900	  1821	  1792.3     0.54915
25	    13.4900	  1732	  1792.2     0.57737
26	    13.5900	  1809	  1792.1     0.55279
27	    13.6900	  1735	  1792.0     0.57637
28	    13.7900	  1751	  1791.9     0.5711
29	    13.8900	  1776	  1791.8     0.56306
30	    13.9900	  1779	  1791.7     0.56211
31	    14.0900	  1830	  1791.6     0.54645
32	    14.1900	  1806	  1791.5     0.55371
33	    14.2900	  1793	  1791.4     0.55772
34	    14.3900	  1771	  1791.2     0.56465
35	    14.4900	  1757	  1791.1     0.56915
36	    14.5900	  1804	  1791.0     0.55432
37	    14.6900	  1828	  1790.9     0.54705
38	    14.7900	  1809	  1790.8     0.55279
39	    14.8900	  1798	  1790.7     0.55617
40	    14.9900	  1722	  1790.6     0.58072
41	    15.0900	  1751	  1790.5     0.5711
42	    15.1900	  1855	  1790.4     0.53908
43	    15.2900	  1790	  1790.3     0.55866
44	    15.3900	  1820	  1790.2     0.54945
45	    15.4900	  1773	  1790.1     0.56402
46	    15.5900	  1805	  1790.0     0.55402
47	    15.6900	  1757	  1789.8     0.56915
48	    15.7900	  1696	  1789.7     0.58962
49	    15.8900	  1732	  1789.6     0.57737
50	    15.9900	  1772	  1789.5     0.56433
51	    16.0900	  1902	  1789.4     0.52576
52	    16.1900	  1754	  1789.3     0.57013
53	    16.2900	  1726	  1789.2     0.57937
54	    16.3900	  1747	  1789.1     0.57241
55	    16.4900	  1792	  1789.0     0.55804
56	    16.5900	  1766	  1788.9     0.56625
57	    16.6900	  1748	  1788.8     0.57208
58	    16.7900	  1743	  1788.7     0.57372
59	    16.8900	  1819	  1788.6     0.54975
60	    16.9900	  1744	  1788.4     0.57339
61	    17.0900	  1822	  1788.3     0.54885
62	    17.1900	  1735	  1788.2     0.57637
63	    17.2900	  1800	  1788.1     0.55556
64	    17.3900	  1814	  1788.0     0.55127
65	    17.4900	  1819	  1787.9     0.54975
66	    17.5900	  1772	  1787.8     0.56433
67	    17.6900	  1833	  1787.8     0.54555
68	    17.7900	  1891	  1789.0     0.52882
69	    17.8900	  1978	  1803.3     0.50556
70	    17.9900	  2099	  1878.3     0.47642
71	    18.0900	  2277	  2053.1     0.43917
72	    18.1900	  2428	  2181.5     0.41186
73	    18.2900	  2173	  2083.9     0.46019
74	    18.3900	  1950	  1900.4     0.51282
75	    18.4900	  1860	  1808.8     0.53763
76	    18.5900	  1786	  1788.9     0.55991
77	    18.6900	  1788	  1786.7     0.55928
78	    18.7900	  1782	  1786.5     0.56117
79	    18.8900	  1815	  1786.4     0.55096
80	    18.9900	  1747	  1786.3     0.57241
81	    19.0900	  1734	  1786.2     0.5767
82	    19.1900	  1839	  1786.1     0.54377
83	    19.2900	  1803	  1786.0     0.55463
84	    19.3900	  1872	  1785.9     0.53419
85	    19.4900	  1767	  1785.8     0.56593
86	    19.5900	  1792	  1785.6     0.55804
87	    19.6900	  1709	  1785.5     0.58514
88	    19.7900	  1770	  1785.4     0.56497
89	    19.8900	  1686	  1785.3     0.59312
90	    19.9900	  1807	  1785.2     0.5534
91	    20.0900	  1815	  1785.1     0.55096
92	    20.1900	  1815	  1785.0     0.55096
93	    20.2900	  1882	  1784.9     0.53135
94	    20.3900	  1817	  1784.8     0.55036
95	    20.4900	  1765	  1784.7     0.56657
96	    20.5900	  1783	  1784.6     0.56085
97	    20.6900	  1795	  1784.5     0.5571
98	    20.7900	  1727	  1784.4     0.57904
99	    20.8900	  1776	  1784.3     0.56306
100	    20.9900	  1792	  1784.1     0.55804
101	    21.0900	  1871	  1784.0     0.53447
102	    21.1900	  1855	  1783.9     0.53908
103	    21.2900	  1799	  1783.8     0.55586
104	    21.3900	  1816	  1783.7     0.55066
105	    21.4900	  1729	  1783.6     0.57837
106	    21.5900	  1746	  1783.5     0.57274
107	    21.6900	  1834	  1783.4     0.54526
108	    21.7900	  1735	  1783.3     0.57637
109	    21.8900	  1844	  1783.2     0.5423
110	    21.9900	  1822	  1783.1     0.54885
111	    22.0900	  1854	  1783.0     0.53937
112	    22.1900	  1778	  1783.3     0.56243
113	    22.2900	  1816	  1783.9     0.55066
114	    22.3900	  1860	  1784.4     0.53763
115	    22.4900	  1809	  1785.0     0.55279
116	    22.5900	  1802	  1785.6     0.55494
117	    22.6900	  1890	  1786.2     0.5291
118	    22.7900	  1778	  1786.8     0.56243
119	    22.8900	  1812	  1787.4     0.55188
120	    22.9900	  1787	  1788.0     0.5596
121	    23.0900	  1830	  1788.6     0.54645
122	    23.1900	  1793	  1789.2     0.55772
123	    23.2900	  1771	  1789.8     0.56465
124	    23.3900	  1823	  1790.4     0.54855
125	    23.4900	  1836	  1791.0     0.54466
126	    23.5900	  1856	  1791.6     0.53879
127	    23.6900	  1833	  1792.1     0.54555
128	    23.7900	  1794	  1792.7     0.55741
129	    23.8900	  1816	  1793.3     0.55066
130	    23.9900	  1764	  1793.9     0.56689
131	    24.0900	  1799	  1794.5     0.55586
132	    24.1900	  1842	  1795.1     0.54289
133	    24.2900	  1861	  1795.7     0.53735
134	    24.3900	  1872	  1796.3     0.53419
135	    24.4900	  1841	  1796.9     0.54318
136	    24.5900	  1853	  1797.5     0.53967
137	    24.6900	  1775	  1798.1     0.56338
138	    24.7900	  1867	  1798.7     0.53562
139	    24.8900	  1798	  1799.2     0.55617
140	    24.9900	  1840	  1799.8     0.54348
141	    25.0900	  1786	  1800.4     0.55991
142	    25.1900	  1941	  1801.0     0.5152
143	    25.2900	  1747	  1801.6     0.57241
144	    25.3900	  1797	  1802.3     0.55648
145	    25.4900	  1839	  1804.0     0.54377
146	    25.5900	  1958	  1815.4     0.51073
147	    25.6900	  1875	  1857.8     0.53333
148	    25.7900	  1988	  1917.9     0.50302
149	    25.8900	  1976	  1929.3     0.50607
150	    25.9900	  1931	  1881.9     0.51787
151	    26.0900	  1836	  1831.5     0.54466
152	    26.1900	  1913	  1811.0     0.52274
153	    26.2900	  1737	  1807.8     0.57571
154	    26.3900	  1779	  1808.1     0.56211
155	    26.4900	  1801	  1808.7     0.55525
156	    26.5900	  1845	  1809.3     0.54201
157	    26.6900	  1860	  1809.9     0.53763
158	    26.7900	  1839	  1810.5     0.54377
159	    26.8900	  1747	  1811.1     0.57241
160	    26.9900	  1902	  1811.7     0.52576
161	    27.0900	  1826	  1812.3     0.54765
162	    27.1900	  1853	  1812.9     0.53967
163	    27.2900	  1860	  1813.5     0.53763
164	    27.3900	  1803	  1814.1     0.55463
165	    27.4900	  1847	  1814.6     0.54142
166	    27.5900	  1754	  1815.2     0.57013
167	    27.6900	  1772	  1815.8     0.56433
168	    27.7900	  1911	  1816.4     0.52329
169	    27.8900	  1815	  1817.0     0.55096
170	    27.9900	  1852	  1817.6     0.53996
171	    28.0900	  1805	  1818.2     0.55402
172	    28.1900	  1782	  1818.8     0.56117
173	    28.2900	  1844	  1819.4     0.5423
174	    28.3900	  1873	  1820.0     0.5339
175	    28.4900	  1788	  1820.6     0.55928
176	    28.5900	  1817	  1821.2     0.55036
177	    28.6900	  1805	  1821.7     0.55402
178	    28.7900	  1797	  1822.3     0.55648
179	    28.8900	  1826	  1822.9     0.54765
180	    28.9900	  1848	  1823.5     0.54113
181	    29.0900	  1854	  1824.1     0.53937
182	    29.1900	  1847	  1824.7     0.54142
183	    29.2900	  1818	  1825.3     0.55006
184	    29.3900	  1835	  1825.9     0.54496
185	    29.4900	  1789	  1826.5     0.55897
186	    29.5900	  1916	  1827.1     0.52192
187	    29.6900	  1882	  1827.7     0.53135
188	    29.7900	  1773	  1828.3     0.56402
189	    29.8900	  1799	  1828.9     0.55586
190	    29.9900	  1871	  1829.4     0.53447
191	    30.0900	  1860	  1830.0     0.53763
192	    30.1900	  1820	  1830.6     0.54945
193	    30.2900	  1848	  1831.2     0.54113
194	    30.3900	  1908	  1831.8     0.52411
195	    30.4900	  1845	  1832.4     0.54201
196	    30.5900	  1827	  1833.0     0.54735
197	    30.6900	  1871	  1833.6     0.53447
198	    30.7900	  1855	  1834.2     0.53908
199	    30.8900	  1761	  1834.8     0.56786
200	    30.9900	  1889	  1835.4     0.52938
201	    31.0900	  1887	  1836.0     0.52994
202	    31.1900	  1853	  1836.6     0.53967
203	    31.2900	  1833	  1837.2     0.54555
204	    31.3900	  1891	  1839.9     0.52882
205	    31.4900	  1887	  1859.2     0.52994
206	    31.5900	  2031	  1922.9     0.49237
207	    31.6900	  2189	  2011.1     0.45683
208	    31.7900	  2330	  2126.4     0.42918
209	    31.8900	  2449	  2207.1     0.40833
210	    31.9900	  2302	  2067.7     0.4344
211	    32.0900	  2007	  1899.2     0.49826
212	    32.1900	  1967	  1848.2     0.50839
213	    32.2900	  1833	  1843.3     0.54555
214	    32.3900	  1802	  1843.7     0.55494
215	    32.4900	  1864	  1844.2     0.53648
216	    32.5900	  1915	  1844.8     0.52219
217	    32.6900	  1838	  1845.4     0.54407
218	    32.7900	  1798	  1846.0     0.55617
219	    32.8900	  1868	  1846.6     0.53533
220	    32.9900	  1878	  1847.2     0.53248
221	    33.0900	  1744	  1847.8     0.57339
222	    33.1900	  1903	  1848.4     0.52549
223	    33.2900	  1891	  1849.0     0.52882
224	    33.3900	  1927	  1849.6     0.51894
225	    33.4900	  1816	  1850.2     0.55066
226	    33.5900	  1864	  1850.8     0.53648
227	    33.6900	  1834	  1851.4     0.54526
228	    33.7900	  1912	  1851.9     0.52301
229	    33.8900	  1806	  1851.3     0.55371
230	    33.9900	  1876	  1850.6     0.53305
231	    34.0900	  1838	  1849.9     0.54407
232	    34.1900	  1857	  1849.1     0.5385
233	    34.2900	  1915	  1848.4     0.52219
234	    34.3900	  1832	  1847.7     0.54585
235	    34.4900	  1926	  1846.9     0.51921
236	    34.5900	  1906	  1846.2     0.52466
237	    34.6900	  1993	  1845.4     0.50176
238	    34.7900	  1831	  1844.7     0.54615
239	    34.8900	  1920	  1844.0     0.52083
240	    34.9900	  1884	  1843.2     0.53079
241	    35.0900	  1884	  1842.5     0.53079
242	    35.1900	  1903	  1841.7     0.52549
243	    35.2900	  1912	  1841.0     0.52301
244	    35.3900	  1921	  1840.3     0.52056
245	    35.4900	  1936	  1839.5     0.51653
246	    35.5900	  1972	  1838.8     0.5071
247	    35.6900	  1908	  1838.0     0.52411
248	    35.7900	  2002	  1837.3     0.4995
249	    35.8900	  1992	  1836.6     0.50201
250	    35.9900	  1988	  1836.0     0.50302
251	    36.0900	  2099	  1837.1     0.47642
252	    36.1900	  2204	  1849.5     0.45372
253	    36.2900	  2460	  1924.4     0.4065
254	    36.3900	  3037	  2253.4     0.32927
255	    36.4900	  4205	  3341.3     0.23781
256	    36.5900	  7012	  6031.7     0.14261
257	    36.6900	 11101	 10930.8     0.09008
258	    36.7900	 17033	 17284.1     0.05871
259	    36.8900	 20284	 22259.1     0.0493
260	    36.9900	 20465	 22326.6     0.04886
261	    37.0900	 16776	 17430.2     0.05961
262	    37.1900	 11185	 11067.3     0.08941
263	    37.2900	  6862	  6116.2     0.14573
264	    37.3900	  4374	  3375.9     0.22862
265	    37.4900	  3264	  2259.3     0.30637
266	    37.5900	  2831	  1918.4     0.35323
267	    37.6900	  2400	  1839.2     0.41667
268	    37.7900	  2086	  1824.6     0.47939
269	    37.8900	  2059	  1822.0     0.48567
270	    37.9900	  2071	  1821.1     0.48286
271	    38.0900	  1949	  1820.3     0.51308
272	    38.1900	  1935	  1819.6     0.5168
273	    38.2900	  1951	  1818.8     0.51256
274	    38.3900	  1864	  1818.1     0.53648
275	    38.4900	  1893	  1817.3     0.52826
276	    38.5900	  1905	  1816.6     0.52493
277	    38.6900	  1809	  1815.9     0.55279
278	    38.7900	  1864	  1815.1     0.53648
279	    38.8900	  1821	  1814.4     0.54915
280	    38.9900	  1884	  1813.6     0.53079
281	    39.0900	  1933	  1812.9     0.51733
282	    39.1900	  1874	  1812.2     0.53362
283	    39.2900	  1797	  1811.4     0.55648
284	    39.3900	  1797	  1810.7     0.55648
285	    39.4900	  1814	  1810.0     0.55127
286	    39.5900	  1897	  1809.2     0.52715
287	    39.6900	  1901	  1808.5     0.52604
288	    39.7900	  1769	  1807.7     0.56529
289	    39.8900	  1761	  1807.0     0.56786
290	    39.9900	  1819	  1806.3     0.54975
291	    40.0900	  1848	  1805.5     0.54113
292	    40.1900	  1824	  1804.8     0.54825
293	    40.2900	  1807	  1804.0     0.5534
294	    40.3900	  1778	  1803.3     0.56243
295	    40.4900	  1881	  1802.6     0.53163
296	    40.5900	  1861	  1801.8     0.53735
297	    40.6900	  1842	  1801.1     0.54289
298	    40.7900	  1806	  1800.3     0.55371
299	    40.8900	  1769	  1799.6     0.56529
300	    40.9900	  1787	  1799.0     0.5596
301	    41.0900	  1832	  1800.2     0.54585
302	    41.1900	  1991	  1818.5     0.50226
303	    41.2900	  2038	  1893.6     0.49068
304	    41.3900	  2215	  2008.1     0.45147
305	    41.4900	  2137	  2061.6     0.46795
306	    41.5900	  2136	  2020.0     0.46816
307	    41.6900	  2074	  1908.3     0.48216
308	    41.7900	  2019	  1821.6     0.49529
309	    41.8900	  1867	  1795.4     0.53562
310	    41.9900	  1883	  1791.6     0.53107
311	    42.0900	  1848	  1790.7     0.54113
312	    42.1900	  1844	  1790.0     0.5423
313	    42.2900	  1790	  1789.3     0.55866
314	    42.3900	  1798	  1788.5     0.55617
315	    42.4900	  1796	  1787.8     0.55679
316	    42.5900	  1763	  1787.0     0.56721
317	    42.6900	  1888	  1786.3     0.52966
318	    42.7900	  1820	  1785.6     0.54945
319	    42.8900	  1820	  1784.8     0.54945
320	    42.9900	  1801	  1784.1     0.55525
321	    43.0900	  1845	  1783.3     0.54201
322	    43.1900	  1748	  1783.1     0.57208
323	    43.2900	  1769	  1783.4     0.56529
324	    43.3900	  1742	  1783.8     0.57405
325	    43.4900	  1847	  1784.2     0.54142
326	    43.5900	  1791	  1784.5     0.55835
327	    43.6900	  1828	  1784.9     0.54705
328	    43.7900	  1816	  1785.3     0.55066
329	    43.8900	  1850	  1785.6     0.54054
330	    43.9900	  1867	  1786.0     0.53562
331	    44.0900	  1862	  1786.3     0.53706
332	    44.1900	  1809	  1786.7     0.55279
333	    44.2900	  1771	  1787.1     0.56465
334	    44.3900	  1849	  1787.4     0.54083
335	    44.4900	  1788	  1787.8     0.55928
336	    44.5900	  1831	  1788.2     0.54615
337	    44.6900	  1856	  1788.5     0.53879
338	    44.7900	  1759	  1788.9     0.5685
339	    44.8900	  1803	  1789.3     0.55463
340	    44.9900	  1827	  1789.6     0.54735
341	    45.0900	  1796	  1790.2     0.55679
342	    45.1900	  1786	  1792.7     0.55991
343	    45.2900	  1796	  1805.7     0.55679
344	    45.3900	  1811	  1836.8     0.55218
345	    45.4900	  1874	  1864.8     0.53362
346	    45.5900	  1986	  1874.6     0.50352
347	    45.6900	  1925	  1882.6     0.51948
348	    45.7900	  1930	  1867.2     0.51813
349	    45.8900	  1893	  1827.8     0.52826
350	    45.9900	  1801	  1801.8     0.55525
351	    46.0900	  1909	  1794.7     0.52383
352	    46.1900	  1853	  1794.1     0.53967
353	    46.2900	  1813	  1794.4     0.55157
354	    46.3900	  1811	  1794.7     0.55218
355	    46.4900	  1868	  1795.1     0.53533
356	    46.5900	  1791	  1795.5     0.55835
357	    46.6900	  1801	  1795.8     0.55525
358	    46.7900	  1829	  1796.2     0.54675
359	    46.8900	  1778	  1796.5     0.56243
360	    46.9900	  1798	  1796.9     0.55617
361	    47.0900	  1846	  1797.3     0.54171
362	    47.1900	  1798	  1797.6     0.55617
363	    47.2900	  1781	  1798.0     0.56148
364	    47.3900	  1797	  1798.4     0.55648
365	    47.4900	  1781	  1798.7     0.56148
366	    47.5900	  1837	  1799.1     0.54437
367	    47.6900	  1831	  1799.5     0.54615
368	    47.7900	  1790	  1799.8     0.55866
369	    47.8900	  1831	  1800.2     0.54615
370	    47.9900	  1794	  1800.6     0.55741
371	    48.0900	  1762	  1800.9     0.56754
372	    48.1900	  1816	  1801.3     0.55066
373	    48.2900	  1893	  1801.7     0.52826
374	    48.3900	  1827	  1802.0     0.54735
375	    48.4900	  1865	  1802.4     0.53619
376	    48.5900	  1816	  1802.7     0.55066
377	    48.6900	  1762	  1802.8     0.56754
378	    48.7900	  1795	  1802.9     0.5571
379	    48.8900	  1879	  1803.0     0.5322
380	    48.9900	  1781	  1803.1     0.56148
381	    49.0900	  1812	  1803.2     0.55188
382	    49.1900	  1877	  1803.3     0.53277
383	    49.2900	  1803	  1803.3     0.55463
384	    49.3900	  1847	  1803.4     0.54142
385	    49.4900	  1899	  1803.5     0.52659
386	    49.5900	  1812	  1803.6     0.55188
387	    49.6900	  1825	  1803.7     0.54795
388	    49.7900	  1840	  1803.8     0.54348
389	    49.8900	  1924	  1803.9     0.51975
390	    49.9900	  1846	  1804.0     0.54171
391	    50.0900	  1894	  1804.1     0.52798
392	    50.1900	  1939	  1804.2     0.51573
393	    50.2900	  1896	  1804.3     0.52743
394	    50.3900	  1855	  1804.4     0.53908
395	    50.4900	  1835	  1804.5     0.54496
396	    50.5900	  1854	  1804.6     0.53937
397	    50.6900	  1802	  1804.7     0.55494
398	    50.7900	  1798	  1804.8     0.55617
399	    50.8900	  1851	  1804.9     0.54025
400	    50.9900	  1886	  1805.0     0.53022
401	    51.0900	  1813	  1805.1     0.55157
402	    51.1900	  1864	  1805.2     0.53648
403	    51.2900	  1962	  1805.3     0.50968
404	    51.3900	  1873	  1805.3     0.5339
405	    51.4900	  1842	  1805.4     0.54289
406	    51.5900	  1811	  1805.5     0.55218
407	    51.6900	  1804	  1805.6     0.55432
408	    51.7900	  1848	  1805.7     0.54113
409	    51.8900	  1892	  1805.9     0.52854
410	    51.9900	  1866	  1806.2     0.53591
411	    52.0900	  1876	  1807.3     0.53305
412	    52.1900	  1904	  1811.6     0.52521
413	    52.2900	  1947	  1826.2     0.51361
414	    52.3900	  2003	  1869.4     0.49925
415	    52.4900	  2146	  1979.5     0.46598
416	    52.5900	  2381	  2219.4     0.41999
417	    52.6900	  2827	  2665.5     0.35373
418	    52.7900	  3279	  3375.3     0.30497
419	    52.8900	  4217	  4345.2     0.23714
420	    52.9900	  5053	  5457.3     0.1979
421	    53.0900	  6156	  6428.0     0.16244
422	    53.1900	  6716	  6946.9     0.1489
423	    53.2900	  7120	  6928.4     0.14045
424	    53.3900	  6732	  6414.9     0.14854
425	    53.4900	  5862	  5473.1     0.17059
426	    53.5900	  4862	  4362.3     0.20568
427	    53.6900	  3977	  3396.2     0.25145
428	    53.7900	  3055	  2700.6     0.32733
429	    53.8900	  2337	  2257.9     0.4279
430	    53.9900	  2158	  2008.7     0.46339
431	    54.0900	  2067	  1886.6     0.48379
432	    54.1900	  1988	  1834.9     0.50302
433	    54.2900	  1940	  1816.1     0.51546
434	    54.3900	  1900	  1810.3     0.52632
435	    54.4900	  1924	  1808.8     0.51975
436	    54.5900	  1888	  1808.5     0.52966
437	    54.6900	  1846	  1808.5     0.54171
438	    54.7900	  1892	  1808.6     0.52854
439	    54.8900	  1890	  1808.7     0.5291
440	    54.9900	  1894	  1808.8     0.52798
441	    55.0900	  1836	  1808.9     0.54466
442	    55.1900	  1814	  1809.0     0.55127
443	    55.2900	  1851	  1809.1     0.54025
444	    55.3900	  1786	  1809.2     0.55991
445	    55.4900	  1814	  1809.5     0.55127
446	    55.5900	  1769	  1810.2     0.56529
447	    55.6900	  1807	  1810.8     0.5534
448	    55.7900	  1845	  1811.4     0.54201
449	    55.8900	  1842	  1812.0     0.54289
450	    55.9900	  1898	  1812.6     0.52687
451	    56.0900	  1792	  1813.7     0.55804
452	    56.1900	  1965	  1816.7     0.50891
453	    56.2900	  1873	  1825.4     0.5339
454	    56.3900	  1926	  1842.2     0.51921
455	    56.4900	  1999	  1863.5     0.50025
456	    56.5900	  1948	  1887.3     0.51335
457	    56.6900	  2027	  1918.8     0.49334
458	    56.7900	  1969	  1947.9     0.50787
459	    56.8900	  2096	  1947.0     0.4771
460	    56.9900	  2008	  1909.8     0.49801
461	    57.0900	  2005	  1863.8     0.49875
462	    57.1900	  1907	  1834.5     0.52438
463	    57.2900	  1884	  1823.6     0.53079
464	    57.3900	  1839	  1821.5     0.54377
465	    57.4900	  1807	  1821.7     0.5534
466	    57.5900	  1808	  1822.3     0.5531
467	    57.6900	  1889	  1822.9     0.52938
468	    57.7900	  1852	  1823.5     0.53996
469	    57.8900	  1761	  1824.1     0.56786
470	    57.9900	  1923	  1824.7     0.52002
471	    58.0900	  1821	  1825.3     0.54915
472	    58.1900	  1834	  1825.9     0.54526
473	    58.2900	  1828	  1826.5     0.54705
474	    58.3900	  1831	  1827.1     0.54615
475	    58.4900	  1854	  1827.7     0.53937
476	    58.5900	  1906	  1828.6     0.52466
477	    58.6900	  1791	  1829.7     0.55835
478	    58.7900	  1886	  1830.7     0.53022
479	    58.8900	  1818	  1831.8     0.55006
480	    58.9900	  1775	  1832.9     0.56338
481	    59.0900	  1867	  1833.9     0.53562
482	    59.1900	  1890	  1835.0     0.5291
483	    59.2900	  1860	  1836.1     0.53763
484	    59.3900	  1911	  1837.1     0.52329
485	    59.4900	  1874	  1838.3     0.53362
486	    59.5900	  1871	  1839.8     0.53447
487	    59.6900	  1854	  1842.9     0.53937
488	    59.7900	  1837	  1850.9     0.54437
489	    59.8900	  1979	  1866.8     0.50531
490	    59.9900	  1936	  1887.0     0.51653
491	    60.0900	  1917	  1900.4     0.52165
492	    60.1900	  1912	  1899.0     0.52301
493	    60.2900	  1905	  1886.0     0.52493
494	    60.3900	  1926	  1870.1     0.51921
495	    60.4900	  1908	  1858.5     0.52411
496	    60.5900	  1829	  1853.0     0.54675
497	    60.6900	  1896	  1851.7     0.52743
498	    60.7900	  1787	  1852.2     0.5596
499	    60.8900	  1856	  1853.2     0.53879
500	    60.9900	  1976	  1854.2     0.50607
501	    61.0900	  1833	  1855.3     0.54555
502	    61.1900	  1931	  1856.4     0.51787
503	    61.2900	  1896	  1857.5     0.52743
504	    61.3900	  1859	  1858.5     0.53792
505	    61.4900	  1889	  1859.6     0.52938
506	    61.5900	  1881	  1860.7     0.53163
507	    61.6900	  1872	  1861.7     0.53419
508	    61.7900	  1833	  1862.5     0.54555
509	    61.8900	  1921	  1862.4     0.52056
510	    61.9900	  1807	  1862.3     0.5534
511	    62.0900	  1855	  1862.1     0.53908
512	    62.1900	  1884	  1862.0     0.53079
513	    62.2900	  1967	  1861.9     0.50839
514	    62.3900	  1922	  1861.7     0.52029
515	    62.4900	  1926	  1861.6     0.51921
516	    62.5900	  1957	  1861.6     0.51099
517	    62.6900	  1992	  1861.9     0.50201
518	    62.7900	  2004	  1864.0     0.499
519	    62.8900	  1994	  1871.2     0.5015
520	    62.9900	  2120	  1888.4     0.4717
521	    63.0900	  2122	  1918.0     0.47125
522	    63.1900	  2210	  1956.3     0.45249
523	    63.2900	  2400	  1996.9     0.41667
524	    63.3900	  2410	  2029.7     0.41494
525	    63.4900	  2431	  2038.1     0.41135
526	    63.5900	  2374	  2010.9     0.42123
527	    63.6900	  2332	  1959.5     0.42882
528	    63.7900	  2243	  1910.0     0.44583
529	    63.8900	  2175	  1878.8     0.45977
530	    63.9900	  2095	  1865.1     0.47733
531	    64.0900	  1994	  1860.7     0.5015
532	    64.1900	  2046	  1859.6     0.48876
533	    64.2900	  1980	  1859.3     0.50505
534	    64.3900	  1961	  1859.2     0.50994
535	    64.4900	  1950	  1859.1     0.51282
536	    64.5900	  1928	  1859.0     0.51867
537	    64.6900	  1942	  1858.9     0.51493
538	    64.7900	  1863	  1859.1     0.53677
539	    64.8900	  1935	  1859.9     0.5168
540	    64.9900	  2012	  1862.5     0.49702
541	    65.0900	  1951	  1869.5     0.51256
542	    65.1900	  2016	  1886.8     0.49603
543	    65.2900	  2024	  1925.5     0.49407
544	    65.3900	  2115	  2004.8     0.47281
545	    65.4900	  2268	  2153.7     0.44092
546	    65.5900	  2517	  2410.4     0.3973
547	    65.6900	  2856	  2818.0     0.35014
548	    65.7900	  3444	  3416.6     0.29036
549	    65.8900	  4216	  4233.7     0.23719
550	    65.9900	  5177	  5276.6     0.19316
551	    66.0900	  6650	  6525.3     0.15038
552	    66.1900	  8323	  7928.1     0.12015
553	    66.2900	  9819	  9399.6     0.10184
554	    66.3900	 10907	 10820.0     0.09168
555	    66.4900	 12355	 12030.0     0.08094
556	    66.5900	 13467	 12832.7     0.07426
557	    66.6900	 13480	 13032.2     0.07418
558	    66.7900	 12612	 12515.4     0.07929
559	    66.8900	 11631	 11329.2     0.08598
560	    66.9900	  9964	  9680.9     0.10036
561	    67.0900	  8083	  7857.2     0.12372
562	    67.1900	  6344	  6124.7     0.15763
563	    67.2900	  4638	  4668.1     0.21561
564	    67.3900	  3339	  3568.7     0.29949
565	    67.4900	  2658	  2819.2     0.37622
566	    67.5900	  2327	  2355.6     0.42974
567	    67.6900	  2104	  2094.7     0.47529
568	    67.7900	  2076	  1960.7     0.4817
569	    67.8900	  1989	  1897.8     0.50277
570	    67.9900	  1966	  1870.8     0.50865
571	    68.0900	  1860	  1860.1     0.53763
572	    68.1900	  1894	  1856.1     0.52798
573	    68.2900	  1894	  1854.7     0.52798
574	    68.3900	  1888	  1854.2     0.52966
575	    68.4900	  1797	  1854.0     0.55648
576	    68.5900	  1769	  1853.8     0.56529
577	    68.6900	  2006	  1853.7     0.4985
578	    68.7900	  1882	  1853.6     0.53135
579	    68.8900	  1843	  1853.6     0.54259
580	    68.9900	  1862	  1854.1     0.53706
581	    69.0900	  1826	  1855.9     0.54765
582	    69.1900	  1787	  1859.9     0.5596
583	    69.2900	  1827	  1867.3     0.54735
584	    69.3900	  1923	  1877.8     0.52002
585	    69.4900	  1861	  1887.9     0.53735
586	    69.5900	  1819	  1894.1     0.54975
587	    69.6900	  1835	  1895.9     0.54496
588	    69.7900	  1875	  1894.3     0.53333
589	    69.8900	  1955	  1888.9     0.51151
590	    69.9900	  1854	  1879.0     0.53937
591	    70.0900	  1866	  1865.9     0.53591
592	    70.1900	  1873	  1853.4     0.5339
593	    70.2900	  1895	  1844.5     0.5277
594	    70.3900	  1808	  1839.3     0.5531
595	    70.4900	  1822	  1836.6     0.54885
596	    70.5900	  1782	  1834.8     0.56117
597	    70.6900	  1839	  1833.5     0.54377
598	    70.7900	  1709	  1832.2     0.58514
599	    70.8900	  1803	  1830.9     0.55463
600	    70.9900	  1886	  1829.7     0.53022
601	    71.0900	  1851	  1828.4     0.54025
602	    71.1900	  1831	  1827.1     0.54615
603	    71.2900	  1776	  1825.9     0.56306
604	    71.3900	  1789	  1824.6     0.55897
605	    71.4900	  1786	  1823.4     0.55991
606	    71.5900	  1877	  1822.1     0.53277
607	    71.6900	  1911	  1820.9     0.52329
608	    71.7900	  2005	  1820.0     0.49875
609	    71.8900	  1993	  1819.8     0.50176
610	    71.9900	  1989	  1821.6     0.50277
611	    72.0900	  2008	  1826.8     0.49801
612	    72.1900	  2094	  1836.6     0.47755
613	    72.2900	  2088	  1849.7     0.47893
614	    72.3900	  2143	  1862.2     0.46664
615	    72.4900	  2036	  1870.2     0.49116
616	    72.5900	  2053	  1871.7     0.48709
617	    72.6900	  2070	  1867.7     0.48309
618	    72.7900	  2010	  1859.8     0.497510633
619	    72.8900	  2050	  1849.2     0.4878
620	    72.9900	  2007	  1836.8     0.498260546
621	    73.0900	  2009	  1824.5     0.49776
622	    73.1900	  1825	  1814.1     0.54795
623	    73.2900	  1725	  1806.6     0.579710592
624	    73.3900	  1813	  1801.8     0.55157
625	    73.4900	  1760	  1798.9     0.568180694
626	    73.5900	  1829	  1797.1     0.54675
627	    73.6900	  1813	  1795.6     0.55157
628	    73.7900	  1778	  1794.3     0.56243
629	    73.8900	  1754	  1793.0     0.57013
630	    73.9900	  1787	  1791.8     0.5596
631	    74.0900	  1758	  1790.5     0.56883
632	    74.1900	  1767	  1789.2     0.56593
633	    74.2900	  1799	  1788.0     0.55586
634	    74.3900	  1823	  1786.9     0.54855
635	    74.4900	  1745	  1786.1     0.57307
636	    74.5900	  1843	  1785.2     0.54259
637	    74.6900	  1764	  1784.4     0.56689
638	    74.7900	  1848	  1783.6     0.54113
639	    74.8900	  1783	  1782.7     0.56085
640	    74.9900	  1879	  1781.9     0.5322
641	    75.0900	  1800	  1781.1     0.55556
642	    75.1900	  1802	  1780.3     0.55494
643	    75.2900	  1801	  1779.4     0.55525
644	    75.3900	  1822	  1778.6     0.54885
645	    75.4900	  1790	  1777.8     0.55866
646	    75.5900	  1880	  1776.9     0.53191
647	    75.6900	  1837	  1776.1     0.54437
648	    75.7900	  1744	  1775.3     0.57339
649	    75.8900	  1758	  1774.5     0.56883
650	    75.9900	  1834	  1773.6     0.54526
651	    76.0900	  1812	  1772.8     0.55188
652	    76.1900	  1848	  1772.0     0.54113
653	    76.2900	  1910	  1771.2     0.52356
654	    76.3900	  1834	  1770.3     0.54526
655	    76.4900	  1810	  1769.6     0.55249
656	    76.5900	  1885	  1769.0     0.5305
657	    76.6900	  1941	  1768.7     0.5152
658	    76.7900	  1938	  1769.2     0.516
659	    76.8900	  1971	  1771.8     0.50736
660	    76.9900	  2111	  1778.9     0.47371
661	    77.0900	  2172	  1795.6     0.46041
662	    77.1900	  2342	  1831.6     0.42699
663	    77.2900	  2507	  1904.0     0.39888
664	    77.3900	  2902	  2041.5     0.34459
665	    77.4900	  3271	  2287.9     0.30572
666	    77.5900	  3846	  2705.1     0.26001
667	    77.6900	  4677	  3372.6     0.21381
668	    77.7900	  5768	  4380.1     0.17337
669	    77.8900	  7439	  5812.9     0.13443
670	    77.9900	  9212	  7728.6     0.10855
671	    78.0900	 11171	 10127.4     0.08952
672	    78.1900	 13514	 12927.1     0.074
673	    78.2900	 15945	 15947.7     0.06272
674	    78.3900	 18268	 18919.8     0.05474
675	    78.4900	 20518	 21516.3     0.04874
676	    78.5900	 21808	 23407.3     0.04585
677	    78.6900	 22549	 24330.2     0.04435
678	    78.7900	 22198	 24150.3     0.04505
679	    78.8900	 21203	 22894.3     0.04716
680	    78.9900	 19069	 20742.8     0.05244
681	    79.0900	 16995	 17987.2     0.05884
682	    79.1900	 14640	 14963.7     0.06831
683	    79.2900	 12300	 11986.8     0.0813
684	    79.3900	  9962	  9299.4     0.10038
685	    79.4900	  8016	  7049.0     0.12475
686	    79.5900	  6587	  5289.5     0.15181
687	    79.6900	  5436	  3999.0     0.18396
688	    79.7900	  4583	  3108.6     0.2182
689	    79.8900	  3972	  2529.2     0.25176
690	    79.9900	  3538	  2172.8     0.28265
691	    80.0900	  3321	  1965.5     0.30111
692	    80.1900	  2907	  1851.1     0.344
693	    80.2900	  2656	  1791.1     0.37651
694	    80.3900	  2453	  1761.2     0.40766
695	    80.4900	  2250	  1746.9     0.44444
696	    80.5900	  2110	  1740.4     0.47393
697	    80.6900	  1950	  1738.0     0.51282
698	    80.7900	  2006	  1737.9     0.4985
699	    80.8900	  1918	  1739.6     0.52138
700	    80.9900	  1875	  1742.9     0.53333
701	    81.0900	  1863	  1748.0     0.53677
702	    81.1900	  1879	  1755.0     0.5322
703	    81.2900	  1866	  1764.0     0.53591
704	    81.3900	  1864	  1774.7     0.53648
705	    81.4900	  1802	  1785.6     0.55494
706	    81.5900	  1916	  1794.3     0.52192
707	    81.6900	  1877	  1798.0     0.53277
708	    81.7900	  1909	  1794.6     0.52383
709	    81.8900	  1835	  1784.5     0.54496
710	    81.9900	  1880	  1770.1     0.53191
711	    82.0900	  1882	  1754.8     0.53135
712	    82.1900	  1848	  1741.5     0.54113
713	    82.2900	  1826	  1731.7     0.54765
714	    82.3900	  1727	  1725.5     0.57904
715	    82.4900	  1729	  1721.8     0.57837
716	    82.5900	  1693	  1719.7     0.59067
717	    82.6900	  1759	  1718.3     0.5685
718	    82.7900	  1682	  1717.3     0.59453
719	    82.8900	  1648	  1716.4     0.6068
720	    82.9900	  1753	  1715.6     0.57045
721	    83.0900	  1691	  1714.8     0.59137
722	    83.1900	  1803	  1714.4     0.55463
723	    83.2900	  1823	  1714.2     0.54855
724	    83.3900	  1665	  1714.0     0.6006
725	    83.4900	  1746	  1714.0     0.57274
726	    83.5900	  1754	  1714.5     0.57013
727	    83.6900	  1686	  1715.7     0.59312
728	    83.7900	  1643	  1718.3     0.60864
729	    83.8900	  1720	  1722.6     0.5814
730	    83.9900	  1758	  1728.7     0.56883
731	    84.0900	  1746	  1736.3     0.57274
732	    84.1900	  1703	  1744.0     0.5872
733	    84.2900	  1707	  1750.6     0.58582
734	    84.3900	  1796	  1754.4     0.55679
735	    84.4900	  1785	  1754.8     0.56022
736	    84.5900	  1743	  1751.7     0.57372
737	    84.6900	  1740	  1745.8     0.57471
738	    84.7900	  1825	  1738.3     0.54795
739	    84.8900	  1835	  1730.5     0.54496
740	    84.9900	  1762	  1723.4     0.56754
741	    85.0900	  1768	  1717.7     0.56561
742	    85.1900	  1714	  1713.6     0.58343
743	    85.2900	  1745	  1710.9     0.57307
744	    85.3900	  1774	  1709.3     0.5637
745	    85.4900	  1736	  1708.4     0.57604
746	    85.5900	  1736	  1707.8     0.57604
747	    85.6900	  1653	  1707.4     0.60496
748	    85.7900	  1768	  1707.1     0.56561
749	    85.8900	  1752	  1706.8     0.570780658
750	    85.9900	  1746	  1706.6     0.57274
751	    86.0900	  1702	  1706.4     0.587540463
752	    86.1900	  1692	  1706.5     0.591020402
753	    86.2900	  1711	  1706.9     0.584450355
754	    86.3900	  1711	  1708.1     0.584450336
755	    86.4900	  1792	  1710.4     0.558040337
756	    86.5900	  1748	  1714.1     0.572080351
757	    86.6900	  1789	  1719.3     0.55897
758	    86.7900	  1837	  1725.9     0.54437
759	    86.8900	  1849	  1733.1     0.54083
760	    86.9900	  1882	  1740.2     0.53135061
761	    87.0900	  1885	  1746.5     0.5305
762	    87.1900	  1896	  1751.7     0.52743
763	    87.2900	  1889	  1755.6     0.52938
764	    87.3900	  1816	  1758.0     0.55066
765	    87.4900	  1891	  1758.7     0.52882
766	    87.5900	  1891	  1757.2     0.52882
767	    87.6900	  2000	  1752.9     0.5
768	    87.7900	  1971	  1746.3     0.50736
769	    87.8900	  1900	  1738.2     0.52632
770	    87.9900	  1981	  1730.4     0.5048
771	    88.0900	  1946	  1724.9     0.51387
772	    88.1900	  1883	  1723.6     0.53107
773	    88.2900	  1869	  1728.6     0.53505
774	    88.3900	  1901	  1742.2     0.52604
775	    88.4900	  1997	  1767.7     0.50075
776	    88.5900	  2119	  1809.9     0.47192
777	    88.6900	  2020	  1875.1     0.49505
778	    88.7900	  2175	  1971.8     0.45977
779	    88.8900	  2218	  2109.9     0.45086
780	    88.9900	  2472	  2300.5     0.40453
781	    89.0900	  2791	  2554.7     0.35829
782	    89.1900	  3075	  2882.2     0.3252
783	    89.2900	  3465	  3289.7     0.2886
784	    89.3900	  3983	  3778.8     0.25107
785	    89.4900	  4449	  4344.4     0.22477
786	    89.5900	  4994	  4973.2     0.20024
787	    89.6900	  5792	  5642.9     0.17265
788	    89.7900	  6467	  6322.7     0.15463
789	    89.8900	  6894	  6975.5     0.14505
790	    89.9900	  7541	  7560.4     0.13261
791	    90.0900	  8012	  8037.6     0.12481
792	    90.1900	  8139	  8372.7     0.12287
793	    90.2900	  8662	  8540.3     0.11545
794	    90.3900	  8641	  8526.9     0.11573
795	    90.4900	  8448	  8333.1     0.11837
796	    90.5900	  8010	  7973.2     0.12484
797	    90.6900	  7665	  7474.0     0.13046
798	    90.7900	  6860	  6872.3     0.14577
799	    90.8900	  6357	  6209.5     0.15731
800	    90.9900	  5692	  5527.3     0.17569
801	    91.0900	  5076	  4862.5     0.19701
802	    91.1900	  4487	  4244.2     0.22287
803	    91.2900	  3949	  3692.8     0.25323
804	    91.3900	  3455	  3219.1     0.28944
805	    91.4900	  2984	  2826.5     0.33512
806	    91.5900	  2693	  2511.9     0.37133
807	    91.6900	  2470	  2268.2     0.40486
808	    91.7900	  2288	  2085.6     0.43706
809	    91.8900	  2190	  1953.1     0.45662
810	    91.9900	  2013	  1860.3     0.49677
811	    92.0900	  1987	  1797.6     0.50327
812	    92.1900	  1908	  1757.0     0.52411
813	    92.2900	  1862	  1732.2     0.53706
814	    92.3900	  1713	  1718.4     0.58377
815	    92.4900	  1812	  1712.1     0.55188
816	    92.5900	  1737	  1710.8     0.57571
817	    92.6900	  1772	  1712.7     0.56433
818	    92.7900	  1835	  1716.4     0.54496
819	    92.8900	  1884	  1720.8     0.53079
820	    92.9900	  1761	  1725.1     0.56786
821	    93.0900	  1694	  1728.6     0.59032
822	    93.1900	  1813	  1730.7     0.55157
823	    93.2900	  1783	  1730.8     0.56085
824	    93.3900	  1833	  1728.6     0.54555
825	    93.4900	  1819	  1724.3     0.54975
826	    93.5900	  1827	  1718.4     0.54735
827	    93.6900	  1706	  1711.6     0.58617
828	    93.7900	  1849	  1704.6     0.54083
829	    93.8900	  1717	  1698.3     0.58241
830	    93.9900	  1719	  1693.2     0.58173
831	    94.0900	  1691	  1689.2     0.59137
832	    94.1900	  1714	  1686.5     0.58343
833	    94.2900	  1758	  1684.7     0.56883
834	    94.3900	  1727	  1683.6     0.57904
835	    94.4900	  1722	  1683.0     0.58072
836	    94.5900	  1691	  1682.8     0.59137
837	    94.6900	  1705	  1682.8     0.58651
838	    94.7900	  1751	  1683.1     0.5711
839	    94.8900	  1715	  1683.8     0.58309
840	    94.9900	  1685	  1684.9     0.59347
841	    95.0900	  1718	  1686.4     0.58207
842	    95.1900	  1705	  1688.1     0.58651
843	    95.2900	  1712	  1689.7     0.58411
844	    95.3900	  1716	  1691.1     0.58275
845	    95.4900	  1680	  1692.0     0.59524
846	    95.5900	  1679	  1692.3     0.59559
847	    95.6900	  1687	  1692.0     0.59277
848	    95.7900	  1670	  1691.4     0.5988
849	    95.8900	  1759	  1690.5     0.5685
850	    95.9900	  1721	  1689.7     0.58106
851	    96.0900	  1654	  1688.9     0.60459
852	    96.1900	  1719	  1688.1     0.58173
853	    96.2900	  1684	  1687.2     0.59382
854	    96.3900	  1669	  1686.0     0.59916
855	    96.4900	  1712	  1684.6     0.58411
856	    96.5900	  1696	  1683.0     0.58962
857	    96.6900	  1688	  1681.3     0.59242
858	    96.7900	  1671	  1679.7     0.59844
859	    96.8900	  1702	  1678.6     0.58754
860	    96.9900	  1665	  1678.0     0.6006
861	    97.0900	  1693	  1677.6     0.59067
862	    97.1900	  1717	  1677.4     0.58241
863	    97.2900	  1664	  1677.4     0.60096
864	    97.3900	  1676	  1677.5     0.59666
865	    97.4900	  1713	  1677.7     0.58377
866	    97.5900	  1697	  1677.9     0.58928
867	    97.6900	  1574	  1678.2     0.63532
868	    97.7900	  1719	  1678.5     0.58173
869	    97.8900	  1750	  1678.7     0.57143
870	    97.9900	  1656	  1679.0     0.60386
871	    98.0900	  1710	  1679.3     0.5848
872	    98.1900	  1734	  1679.6     0.5767
873	    98.2900	  1687	  1679.9     0.59277
874	    98.3900	  1693	  1680.3     0.59067
875	    98.4900	  1728	  1680.7     0.5787
876	    98.5900	  1660	  1681.2     0.60241
877	    98.6900	  1723	  1681.9     0.58038
878	    98.7900	  1631	  1682.8     0.61312
879	    98.8900	  1619	  1684.1     0.61767
880	    98.9900	  1670	  1686.0     0.5988
881	    99.0900	  1690	  1688.8     0.59172
882	    99.1900	  1677	  1692.9     0.5963
883	    99.2900	  1709	  1698.8     0.58514
884	    99.3900	  1718	  1707.3     0.58207
885	    99.4900	  1782	  1719.3     0.56117
886	    99.5900	  1798	  1735.8     0.55617
887	    99.6900	  1800	  1758.3     0.55556
888	    99.7900	  1855	  1788.4     0.53908
889	    99.8900	  1769	  1827.6     0.56529
890	    99.9900	  1918	  1877.8     0.52138
891	   100.0900	  1890	  1940.9     0.5291
892	   100.1900	  2008	  2018.4     0.49801
893	   100.2900	  2064	  2111.8     0.4845
894	   100.3900	  2166	  2221.9     0.46168
895	   100.4900	  2301	  2349.1     0.43459
896	   100.5900	  2328	  2492.7     0.42955
897	   100.6900	  2499	  2651.4     0.40016
898	   100.7900	  2670	  2822.8     0.37453
899	   100.8900	  2908	  3003.5     0.34388
900	   100.9900	  3030	  3189.3     0.33003
901	   101.0900	  3295	  3375.2     0.30349
902	   101.1900	  3461	  3555.8     0.28893
903	   101.2900	  3580	  3725.4     0.27933
904	   101.3900	  3727	  3878.6     0.26831
905	   101.4900	  3888	  4010.1     0.2572
906	   101.5900	  4061	  4115.0     0.24624
907	   101.6900	  4141	  4189.2     0.24149
908	   101.7900	  4132	  4229.2     0.24201
909	   101.8900	  4241	  4232.5     0.23579
910	   101.9900	  4199	  4198.0     0.23815
911	   102.0900	  4272	  4126.1     0.23408
912	   102.1900	  4045	  4018.9     0.24722
913	   102.2900	  3867	  3880.4     0.2586
914	   102.3900	  3829	  3716.3     0.26116
915	   102.4900	  3560	  3533.6     0.2809
916	   102.5900	  3577	  3339.6     0.27956
917	   102.6900	  3270	  3141.9     0.30581
918	   102.7900	  3082	  2947.3     0.32446
919	   102.8900	  2860	  2761.5     0.34965
920	   102.9900	  2539	  2588.8     0.39386
921	   103.0900	  2490	  2432.2     0.40161
922	   103.1900	  2417	  2293.4     0.41374
923	   103.2900	  2206	  2173.0     0.45331
924	   103.3900	  2148	  2070.8     0.46555
925	   103.4900	  1971	  1985.8     0.50736
926	   103.5900	  2028	  1916.6     0.4931
927	   103.6900	  1867	  1861.5     0.53562
928	   103.7900	  1845	  1818.5     0.54201
929	   103.8900	  1714	  1786.0     0.58343
930	   103.9900	  1760	  1762.0     0.56818
931	   104.0900	  1769	  1744.9     0.56529
932	   104.1900	  1739	  1733.3     0.57504
933	   104.2900	  1768	  1725.8     0.56561
934	   104.3900	  1779	  1721.2     0.56211
935	   104.4900	  1702	  1718.8     0.58754
936	   104.5900	  1717	  1717.7     0.58241
937	   104.6900	  1762	  1717.3     0.56754
938	   104.7900	  1785	  1717.3     0.56022
939	   104.8900	  1781	  1717.3     0.56148
940	   104.9900	  1774	  1717.1     0.5637
941	   105.0900	  1761	  1716.7     0.56786
942	   105.1900	  1729	  1715.8     0.57837
943	   105.2900	  1861	  1714.6     0.53735
944	   105.3900	  1802	  1713.1     0.55494
945	   105.4900	  1728	  1711.5     0.5787
946	   105.5900	  1701	  1709.7     0.58789
947	   105.6900	  1740	  1708.0     0.57471
948	   105.7900	  1693	  1706.5     0.59067
949	   105.8900	  1677	  1705.2     0.5963
950	   105.9900	  1675	  1704.3     0.59701
951	   106.0900	  1749	  1703.8     0.57176
952	   106.1900	  1684	  1703.6     0.59382
953	   106.2900	  1703	  1704.0     0.5872
954	   106.3900	  1776	  1704.3     0.56306
955	   106.4900	  1679	  1704.9     0.59559
956	   106.5900	  1780	  1706.1     0.5618
957	   106.6900	  1682	  1707.9     0.59453
958	   106.7900	  1740	  1710.4     0.57471
959	   106.8900	  1716	  1713.5     0.58275
960	   106.9900	  1720	  1717.2     0.5814
961	   107.0900	  1690	  1721.2     0.59172
962	   107.1900	  1766	  1725.4     0.56625
963	   107.2900	  1738	  1729.5     0.57537
964	   107.3900	  1792	  1733.1     0.55804
965	   107.4900	  1775	  1735.9     0.56338
966	   107.5900	  1783	  1737.8     0.56085
967	   107.6900	  1772	  1738.4     0.56433
968	   107.7900	  1779	  1737.8     0.56211
969	   107.8900	  1685	  1736.0     0.59347
970	   107.9900	  1820	  1733.0     0.54945
971	   108.0900	  1795	  1729.1     0.5571
972	   108.1900	  1741	  1724.6     0.57438
973	   108.2900	  1725	  1719.8     0.57971
974	   108.3900	  1810	  1714.8     0.55249
975	   108.4900	  1765	  1710.1     0.56657
976	   108.5900	  1710	  1705.6     0.5848
977	   108.6900	  1712	  1701.7     0.58411
978	   108.7900	  1726	  1698.3     0.57937
979	   108.8900	  1781	  1695.5     0.56148
980	   108.9900	  1683	  1693.3     0.59418
981	   109.0900	  1666	  1691.7     0.60024
982	   109.1900	  1720	  1690.5     0.5814
983	   109.2900	  1738	  1689.8     0.57537
984	   109.3900	  1714	  1689.5     0.58343
985	   109.4900	  1681	  1689.7     0.59488
986	   109.5900	  1653	  1690.2     0.60496
987	   109.6900	  1666	  1691.1     0.600240719
988	   109.7900	  1778	  1692.5     0.56243
989	   109.8900	  1638	  1694.3     0.6105
990	   109.9900	  1716	  1683.8     0.58275
991	   110.0900	  1760	  1683.3     0.56818
992	   110.1900	  1759	  1682.8     0.5685
993	   110.2900	  1683	  1682.3     0.59418
994	   110.3900	  1721	  1681.9     0.58106
995	   110.4900	  1785	  1681.4     0.56022
996	   110.5900	  1819	  1680.9     0.54975
997	   110.6900	  1835	  1680.4     0.54496
998	   110.7900	  1734	  1679.9     0.5767
999	   110.8900	  1791	  1679.4     0.55835
1000   110.9900	  1868	  1678.9     0.53533
1001   111.0900	  1852	  1678.4     0.53996
1002   111.1900	  1773	  1678.0     0.56402
1003   111.2900	  1830	  1677.5     0.54645
1004   111.3900	  1796	  1677.0     0.55679
1005   111.4900	  1722	  1676.5     0.58072
1006   111.5900	  1860	  1676.0     0.53763
1007   111.6900	  1782	  1675.5     0.56117
1008   111.7900	  1748	  1675.0     0.57208
1009   111.8900	  1783	  1674.5     0.56085
1010   111.9900	  1793	  1674.0     0.55772
1011   112.0900	  1757	  1673.6     0.56915
1012   112.1900	  1714	  1673.1     0.58343
1013   112.2900	  1743	  1672.6     0.57372
1014   112.3900	  1793	  1672.1     0.55772
1015   112.4900	  1819	  1671.6     0.54975
1016   112.5900	  1603	  1671.1     0.62383
1017   112.6900	  1696	  1670.6     0.58962
1018   112.7900	  1790	  1670.1     0.55866
1019   112.8900	  1687	  1669.6     0.59277
1020   112.9900	  1774	  1669.2     0.5637
1021   113.0900	  1794	  1668.7     0.55741
1022   113.1900	  1690	  1668.2     0.59172
1023   113.2900	  1767	  1667.7     0.56593
1024   113.3900	  1729	  1667.2     0.57837
1025   113.4900	  1713	  1666.7     0.58377
1026   113.5900	  1708	  1666.2     0.58548
1027   113.6900	  1681	  1665.7     0.59488
1028   113.7900	  1733	  1665.2     0.57703
1029   113.8900	  1708	  1664.8     0.58548
1030   113.9900	  1690	  1664.3     0.59172
1031   114.0900	  1620	  1663.8     0.61728
1032   114.1900	  1622	  1663.3     0.61652
1033   114.2900	  1694	  1662.8     0.59032
1034   114.3900	  1707	  1662.3     0.58582
1035   114.4900	  1610	  1661.8     0.62112
1036   114.5900	  1715	  1661.3     0.58309
1037   114.6900	  1734	  1660.9     0.5767
1038   114.7900	  1679	  1660.4     0.59559
1039   114.8900	  1694	  1659.9     0.59032
1040   114.9900	  1615	  1659.4     0.6192
1041   115.0900	  1603	  1658.9     0.62383
1042   115.1900	  1713	  1658.4     0.58377
1043   115.2900	  1676	  1657.9     0.59666
1044   115.3900	  1712	  1657.4     0.58411
1045   115.4900	  1707	  1656.9     0.58582
1046   115.5900	  1651	  1656.5     0.60569
1047   115.6900	  1594	  1656.8     0.62735
1048   115.7900	  1702	  1657.4     0.58754
1049   115.8900	  1647	  1657.9     0.60716
1050   115.9900	  1640	  1658.5     0.60976
1051   116.0900	  1717	  1659.0     0.58241
1052   116.1900	  1628	  1659.6     0.61425
1053   116.2900	  1687	  1660.1     0.59277
1054   116.3900	  1601	  1660.6     0.62461
1055   116.4900	  1707	  1661.2     0.58582
1056   116.5900	  1707	  1661.7     0.58582
1057   116.6900	  1688	  1662.3     0.59242
1058   116.7900	  1627	  1662.8     0.61463
1059   116.8900	  1651	  1663.4     0.60569
1060   116.9900	  1696	  1663.9     0.58962
1061   117.0900	  1675	  1664.5     0.59701
1062   117.1900	  1732	  1665.0     0.57737
1063   117.2900	  1693	  1665.5     0.59067
1064   117.3900	  1688	  1666.1     0.59242
1065   117.4900	  1713	  1666.6     0.58377
1066   117.5900	  1681	  1667.2     0.59488
1067   117.6900	  1686	  1667.7     0.59312
1068   117.7900	  1674	  1668.3     0.59737
1069   117.8900	  1721	  1668.8     0.58106
1070   117.9900	  1651	  1669.4     0.60569
1071   118.0900	  1728	  1669.9     0.5787
1072   118.1900	  1721	  1670.4     0.58106
1073   118.2900	  1639	  1671.0     0.61013
1074   118.3900	  1742	  1671.5     0.57405
1075   118.4900	  1666	  1672.1     0.60024
1076   118.5900	  1673	  1672.6     0.59773
1077   118.6900	  1638	  1673.2     0.6105
1078   118.7900	  1607	  1673.7     0.62228
1079   118.8900	  1660	  1674.3     0.60241
1080   118.9900	  1657	  1674.8     0.6035
1081   119.0900	  1624	  1675.3     0.61576
1082   119.1900	  1712	  1675.9     0.58411
1083   119.2900	  1649	  1676.4     0.60643
1084   119.3900	  1665	  1677.0     0.6006
1085   119.4900	  1658	  1677.5     0.60314
1086   119.5900	  1663	  1678.1     0.60132
1087   119.6900	  1745	  1678.6     0.57307
1088   119.7900	  1705	  1679.2     0.58651
1089   119.8900	  1740	  1679.7     0.57471
1090   119.9900	  1651	  1680.3     0.60569
1091   120.0900	  1709	  1680.8     0.58514

# The following lines are used to test the character set of files sent by
# network email or other means. They are not part of the CIF data set.
# abcdefghijklmnopqrstuvwxyzABCDEFGHIJKLMNOPQRSTUVWXYZ0123456789
# !@#$%^&*()_+{}:"~<>?|\-=[];'`,./  



_pd_instr_location
; 
D1b, ILL Grenoble, France
;
_pd_spec_size_thick
20
_chemical_formula_structural
'Na K (Nb O)3'
_cell_formula_units_Z
3
_diffrn_source
'nuclear reactor'
_pd_meas_scan_method
'step'
_pd_proc_ls_profile_function
'pseudo-Voigt'
_pd_proc_2theta_range_min
0.8492
_cell_length_a
5.6085(3)
_cell_length_b
5.6085(3)
_cell_length_c
6.9183(6)
_pd_proc_2theta_range_inc
0.100078
_pd_proc_ls_prof_wR_factor
7.3504
_pd_spec_mounting
'Vanadium can packed with powder'
_diffrn_radiation_type
'Constant Wavelength Neutron Diffraction'
_symmetry_space_group_name_Hall
'R 3 -2"'
_chemical_formula_weight
171.94
_refine_ls_number_restraints
0
_computing_structure_refinement
FULLPROF
_pd_proc_ls_background_function
'Set of experimental background points'
_symmetry_space_group_name_H-M
'R 3 m'
_cell_angle_gamma
120.00000
_cell_measurement_temperature
10
_pd_meas_2theta_range_inc
0.100078
_pd_char_colour
White
_pd_proc_ls_prof_R_factor
4.6480
_refine_ls_number_reflns
127
_diffrn_source_type
D1b-ILL
_chemical_name_systematic
;
Sodium Potassium Niobate oxide
;
_pd_meas_number_of_points
1280
_cell_volume
188.47(2)
_publcif_datablock.id
'{4913df2d-0f41-4df0-9692-5864f468fc55}'
_symmetry_cell_setting
Trigonal
_pd_spec_size_equat
50
_pd_proc_ls_prof_wR_expected
0.8958
_diffrn_ambient_temperature
10
_chemical_name_common
'Sodium Potassium Niobate oxide'
_pd_spec_shape
'cylinder'
_diffrn_radiation_wavelength
2.52277
_pd_proc_2theta_range_max
128.7492
_refine_ls_R_I_factor
7.3147
_cell_angle_alpha
90.00000
_pd_meas_2theta_range_min
0.79000
_refine_ls_number_parameters
5
_chemical_formula_sum
'K0.50 Na0.50 Nb1 O3'
_pd_spec_size_axial
20
_cell_angle_beta
90.00000
_pd_meas_2theta_range_max
128.69000
_pd_proc_wavelength
2.522769
_pd_spec_mount_mode
'transmission'
loop_
_atom_type_symbol
_atom_type_scat_length_neutron
_atom_type_scat_source
NA 0.36300 V.F._Sears_Neutron_News_3_26_(1992)
K 0.36700 V.F._Sears_Neutron_News_3_26_(1992)
NB 0.70540 V.F._Sears_Neutron_News_3_26_(1992)
O 0.58030 V.F._Sears_Neutron_News_3_26_(1992)

loop_
_symmetry_equiv_pos_as_xyz
x,y,z
-y,x-y,z
-y,-x,z
-x+y,-x,z
x,x-y,z
-x+y,y,z
x+2/3,y+1/3,z+1/3
-y+2/3,x-y+1/3,z+1/3
-y+2/3,-x+1/3,z+1/3
-x+y+2/3,-x+1/3,z+1/3
x+2/3,x-y+1/3,z+1/3
-x+y+2/3,y+1/3,z+1/3
x+1/3,y+2/3,z+2/3
-y+1/3,x-y+2/3,z+2/3
-y+1/3,-x+2/3,z+2/3
-x+y+1/3,-x+2/3,z+2/3
x+1/3,x-y+2/3,z+2/3
-x+y+1/3,y+2/3,z+2/3

loop_
_atom_site_label
_atom_site_fract_x
_atom_site_fract_y
_atom_site_fract_z
_atom_site_u_iso_or_equiv
_atom_site_occupancy
_atom_site_adp_type
_atom_site_type_symbol
Na1 0.00000 0.00000 0.0314(5) 0.01092 0.50000 Uiso NA
K1 0.00000 0.00000 0.0314(5) 0.01092 0.50000 Uiso K
Nb1 0.00000 0.00000 0.5174(5) 0.00759 1.00000 Uiso NB
O1 0.1648(2) 0.3296(4) 0.3170(3) 0.00665 1.00000 Uiso O

loop_
_geom_bond_atom_site_label_1
_geom_bond_atom_site_label_2
_geom_bond_distance
Na1 O1 2.5430(4)
Na1 O1 2.5430(2)
Na1 O1 2.5430(4)
Na1 O1 2.5430(4)
Na1 O1 2.5430(2)
Na1 O1 2.5430(4)
Nb1 O1 2.1178(3)
Nb1 O1 2.1178(2)
Nb1 O1 2.1178(3)
Nb1 O1 2.1178(3)
Nb1 O1 2.1178(2)
Nb1 O1 2.1178(3)

loop_
_geom_angle_atom_site_label_1
_geom_angle_atom_site_label_2
_geom_angle_atom_site_label_3
_geom_angle
O1 Na1 O1 66.08(11)
O1 Na1 O1 58.81(8)
O1 Na1 O1 56.54(10)
O1 Na1 O1 60.28(7)
O1 Na1 O1 54.37(10)
O1 Na1 O1 63.09(11)
O1 Na1 O1 84.10(11)
O1 Na1 O1 95.45(13)
O1 Na1 O1 95.45(11)
O1 Na1 O1 110.86(13)
O1 Na1 O1 166.55(10)
O1 Na1 O1 118.65(12)
O1 Na1 O1 119.60(14)
O1 Na1 O1 172.82(16)
O1 Na1 O1 129.07(15)
O1 Na1 O1 172.83(14)



# powder data simulated using PLATON:

data_I_simulated_2.52277

_publcif_pd_cifplot 'simulated 2021-03-25'

