data_I

loop_
_pd_meas_2theta_scan
_pd_meas_counts_total
  5.017      352
  5.050      306
  5.083      343
  5.116      356
  5.149      358
  5.182      355
  5.215      318
  5.248      343
  5.281      344
  5.314      326
  5.347      315
  5.380      356
  5.413      362
  5.446      363
  5.479      330
  5.512      331
  5.545      326
  5.578      347
  5.611      386
  5.644      326
  5.677      323
  5.710      361
  5.743      377
  5.776      357
  5.809      349
  5.842      332
  5.875      330
  5.908      340
  5.941      336
  5.974      339
  6.007      346
  6.040      344
  6.073      334
  6.106      339
  6.139      328
  6.172      318
  6.205      335
  6.238      328
  6.271      332
  6.304      343
  6.337      345
  6.370      353
  6.403      335
  6.436      324
  6.469      340
  6.502      343
  6.535      333
  6.568      319
  6.601      332
  6.634      353
  6.667      345
  6.700      321
  6.733      352
  6.766      369
  6.799      365
  6.832      332
  6.865      313
  6.898      337
  6.931      359
  6.964      324
  6.997      331
  7.030      327
  7.063      319
  7.096      338
  7.129      332
  7.162      332
  7.195      330
  7.228      330
  7.261      364
  7.294      336
  7.327      341
  7.360      357
  7.393      309
  7.426      345
  7.459      329
  7.492      333
  7.525      327
  7.558      318
  7.591      360
  7.624      333
  7.657      321
  7.690      342
  7.723      328
  7.756      369
  7.789      421
  7.822      469
  7.855      590
  7.888      917
  7.921     1688
  7.954     1769
  7.987      774
  8.020      397
  8.053      314
  8.086      327
  8.119      306
  8.152      343
  8.185      351
  8.218      337
  8.251      341
  8.284      338
  8.317      323
  8.350      324
  8.383      318
  8.416      339
  8.449      339
  8.482      326
  8.515      340
  8.548      332
  8.581      313
  8.614      313
  8.647      329
  8.680      334
  8.713      320
  8.746      333
  8.779      352
  8.812      377
  8.845      442
  8.878      555
  8.911      791
  8.944     1445
  8.977     2367
  9.010     2002
  9.043      790
  9.076      412
  9.109      378
  9.142      361
  9.175      340
  9.208      347
  9.241      321
  9.274      321
  9.307      326
  9.340      337
  9.373      341
  9.406      352
  9.439      348
  9.472      343
  9.505      347
  9.538      329
  9.571      333
  9.604      308
  9.637      318
  9.670      333
  9.703      329
  9.736      337
  9.769      332
  9.802      355
  9.835      337
  9.868      328
  9.901      287
  9.934      338
  9.967      361
 10.000      332
 10.033      320
 10.066      349
 10.099      326
 10.132      336
 10.165      374
 10.198      345
 10.231      326
 10.264      329
 10.297      313
 10.330      324
 10.363      333
 10.396      310
 10.429      343
 10.462      336
 10.495      340
 10.528      322
 10.561      333
 10.594      355
 10.627      341
 10.660      310
 10.693      317
 10.726      317
 10.759      342
 10.792      332
 10.825      326
 10.858      338
 10.891      341
 10.924      336
 10.957      324
 10.990      305
 11.023      335
 11.056      343
 11.089      351
 11.122      333
 11.155      335
 11.188      339
 11.221      330
 11.254      328
 11.287      335
 11.320      337
 11.353      347
 11.386      345
 11.419      349
 11.452      350
 11.485      320
 11.518      332
 11.551      349
 11.584      334
 11.617      323
 11.650      309
 11.683      331
 11.716      343
 11.749      321
 11.782      329
 11.815      342
 11.848      335
 11.881      328
 11.914      345
 11.947      330
 11.980      322
 12.013      308
 12.046      313
 12.079      311
 12.112      307
 12.145      337
 12.178      338
 12.211      329
 12.244      322
 12.277      352
 12.310      363
 12.343      378
 12.376      394
 12.409      628
 12.442      857
 12.475      637
 12.508      341
 12.541      324
 12.574      329
 12.607      319
 12.640      333
 12.673      324
 12.706      322
 12.739      329
 12.772      295
 12.805      330
 12.838      352
 12.871      335
 12.904      313
 12.937      307
 12.970      348
 13.003      310
 13.036      326
 13.069      298
 13.102      330
 13.135      315
 13.168      311
 13.201      329
 13.234      318
 13.267      367
 13.300      365
 13.333      328
 13.366      357
 13.399      342
 13.432      307
 13.465      311
 13.498      325
 13.531      307
 13.564      331
 13.597      337
 13.630      302
 13.663      316
 13.696      308
 13.729      314
 13.762      343
 13.795      337
 13.828      320
 13.861      324
 13.894      328
 13.927      312
 13.960      315
 13.993      327
 14.026      314
 14.059      321
 14.092      315
 14.125      327
 14.158      331
 14.191      310
 14.224      316
 14.257      333
 14.290      351
 14.323      406
 14.356      610
 14.389      687
 14.422      466
 14.455      353
 14.488      345
 14.521      331
 14.554      327
 14.587      321
 14.620      304
 14.653      329
 14.686      348
 14.719      346
 14.752      355
 14.785      327
 14.818      311
 14.851      308
 14.884      309
 14.917      309
 14.950      332
 14.983      292
 15.016      315
 15.049      319
 15.082      310
 15.115      286
 15.148      309
 15.181      320
 15.214      340
 15.247      279
 15.280      326
 15.313      312
 15.346      322
 15.379      307
 15.412      308
 15.445      334
 15.478      331
 15.511      307
 15.544      350
 15.577      314
 15.610      306
 15.643      338
 15.676      329
 15.709      333
 15.742      301
 15.775      324
 15.808      324
 15.841      337
 15.874      326
 15.907      283
 15.940      296
 15.973      305
 16.006      338
 16.039      390
 16.072      491
 16.105      680
 16.138      503
 16.171      353
 16.204      320
 16.237      321
 16.270      327
 16.303      311
 16.336      322
 16.369      309
 16.402      314
 16.435      332
 16.468      342
 16.501      329
 16.534      319
 16.567      311
 16.600      314
 16.633      331
 16.666      343
 16.699      322
 16.732      299
 16.765      309
 16.798      315
 16.831      306
 16.864      293
 16.897      296
 16.930      312
 16.963      321
 16.996      334
 17.029      307
 17.062      296
 17.095      324
 17.128      312
 17.161      319
 17.194      304
 17.227      296
 17.260      324
 17.293      326
 17.326      296
 17.359      314
 17.392      305
 17.425      296
 17.458      284
 17.491      324
 17.524      330
 17.557      321
 17.590      329
 17.623      294
 17.656      313
 17.689      323
 17.722      306
 17.755      323
 17.788      311
 17.821      300
 17.854      308
 17.887      332
 17.920      319
 17.953      335
 17.986      438
 18.019      664
 18.052      719
 18.085      390
 18.118      368
 18.151      315
 18.184      318
 18.217      308
 18.250      296
 18.283      315
 18.316      285
 18.349      302
 18.382      367
 18.415      454
 18.448      739
 18.481      656
 18.514      446
 18.547      465
 18.580      843
 18.613      921
 18.646      495
 18.679      322
 18.712      338
 18.745      353
 18.778      336
 18.811      332
 18.844      329
 18.877      334
 18.910      316
 18.943      325
 18.976      375
 19.009      347
 19.042      318
 19.075      298
 19.108      300
 19.141      328
 19.174      335
 19.207      329
 19.240      302
 19.273      304
 19.306      323
 19.339      320
 19.372      330
 19.405      346
 19.438      335
 19.471      322
 19.504      342
 19.537      390
 19.570      466
 19.603      677
 19.636     1538
 19.669     3623
 19.702     4274
 19.735     1753
 19.768      594
 19.801      469
 19.834      391
 19.867      363
 19.900      337
 19.933      352
 19.966      408
 19.999      483
 20.032      465
 20.065      376
 20.098      347
 20.131      324
 20.164      319
 20.197      305
 20.230      317
 20.263      301
 20.296      312
 20.329      329
 20.362      288
 20.395      340
 20.428      325
 20.461      312
 20.494      319
 20.527      328
 20.560      312
 20.593      357
 20.626      328
 20.659      311
 20.692      324
 20.725      359
 20.758      383
 20.791      424
 20.824      412
 20.857      402
 20.890      419
 20.923      377
 20.956      373
 20.989      407
 21.022      524
 21.055     1064
 21.088     1771
 21.121     1085
 21.154     1062
 21.187     1310
 21.220      767
 21.253      443
 21.286      372
 21.319      349
 21.352      325
 21.385      328
 21.418      326
 21.451      344
 21.484      377
 21.517      344
 21.550      333
 21.583      310
 21.616      311
 21.649      316
 21.682      316
 21.715      299
 21.748      299
 21.781      295
 21.814      288
 21.847      310
 21.880      328
 21.913      323
 21.946      314
 21.979      349
 22.012      376
 22.045      344
 22.078      335
 22.111      396
 22.144      701
 22.177     1297
 22.210     1241
 22.243      544
 22.276      386
 22.309      353
 22.342      314
 22.375      306
 22.408      351
 22.441      382
 22.474      477
 22.507      893
 22.540     1293
 22.573      853
 22.606      419
 22.639      339
 22.672      340
 22.705      315
 22.738      315
 22.771      322
 22.804      323
 22.837      340
 22.870      301
 22.903      288
 22.936      295
 22.969      342
 23.002      340
 23.035      310
 23.068      289
 23.101      301
 23.134      291
 23.167      318
 23.200      310
 23.233      302
 23.266      284
 23.299      305
 23.332      312
 23.365      300
 23.398      330
 23.431      293
 23.464      301
 23.497      295
 23.530      312
 23.563      329
 23.596      403
 23.629      387
 23.662      307
 23.695      313
 23.728      315
 23.761      345
 23.794      312
 23.827      341
 23.860      423
 23.893      674
 23.926      665
 23.959      408
 23.992      332
 24.025      323
 24.058      337
 24.091      313
 24.124      317
 24.157      317
 24.190      324
 24.223      324
 24.256      309
 24.289      310
 24.322      340
 24.355      351
 24.388      347
 24.421      365
 24.454      384
 24.487      439
 24.520      740
 24.553     1483
 24.586     2354
 24.619     2493
 24.652     1477
 24.685      561
 24.718      427
 24.751      362
 24.784      342
 24.817      361
 24.850      402
 24.883      381
 24.916      309
 24.949      333
 24.982      329
 25.015      315
 25.048      296
 25.081      314
 25.114      311
 25.147      282
 25.180      314
 25.213      322
 25.246      327
 25.279      358
 25.312      378
 25.345      421
 25.378      593
 25.411     1174
 25.444     1624
 25.477      701
 25.510      392
 25.543      362
 25.576      371
 25.609      360
 25.642      342
 25.675      348
 25.708      405
 25.741      345
 25.774      337
 25.807      377
 25.840      372
 25.873      312
 25.906      342
 25.939      280
 25.972      327
 26.005      329
 26.038      308
 26.071      349
 26.104      405
 26.137      378
 26.170      422
 26.203      492
 26.236      373
 26.269      367
 26.302      371
 26.335      446
 26.368      710
 26.401     1141
 26.434      891
 26.467      625
 26.500      824
 26.533     1163
 26.566      974
 26.599      851
 26.632      930
 26.665      920
 26.698      828
 26.731      707
 26.764      573
 26.797      476
 26.830      422
 26.863      416
 26.896      420
 26.929      369
 26.962      357
 26.995      380
 27.028      420
 27.061      527
 27.094      913
 27.127      999
 27.160      618
 27.193      381
 27.226      350
 27.259      352
 27.292      342
 27.325      324
 27.358      324
 27.391      345
 27.424      332
 27.457      305
 27.490      324
 27.523      321
 27.556      308
 27.589      305
 27.622      301
 27.655      317
 27.688      338
 27.721      348
 27.754      327
 27.787      320
 27.820      365
 27.853      389
 27.886      384
 27.919      377
 27.952      445
 27.985      780
 28.018     1708
 28.051     2777
 28.084     2516
 28.117     1758
 28.150      706
 28.183      459
 28.216      431
 28.249      424
 28.282      415
 28.315      460
 28.348      505
 28.381      443
 28.414      472
 28.447      428
 28.480      421
 28.513      456
 28.546      516
 28.579      585
 28.612      691
 28.645     1370
 28.678     4630
 28.711     7406
 28.744     2889
 28.777      956
 28.810      569
 28.843      488
 28.876      426
 28.909      411
 28.942      433
 28.975      394
 29.008      409
 29.041      397
 29.074      479
 29.107      755
 29.140     1098
 29.173      831
 29.206      795
 29.239     1742
 29.272     3151
 29.305     2878
 29.338     1531
 29.371      701
 29.404      451
 29.437      413
 29.470      416
 29.503      414
 29.536      378
 29.569      361
 29.602      366
 29.635      396
 29.668      438
 29.701      551
 29.734     1110
 29.767     2181
 29.800     2143
 29.833     1568
 29.866     1522
 29.899     1012
 29.932      500
 29.965      392
 29.998      351
 30.031      373
 30.064      371
 30.097      343
 30.130      323
 30.163      344
 30.196      394
 30.229      446
 30.262      503
 30.295      479
 30.328      533
 30.361      708
 30.394      730
 30.427      481
 30.460      365
 30.493      378
 30.526      416
 30.559      560
 30.592      486
 30.625      383
 30.658      358
 30.691      364
 30.724      351
 30.757      374
 30.790      356
 30.823      337
 30.856      377
 30.889      343
 30.922      373
 30.955      328
 30.988      386
 31.021      368
 31.054      350
 31.087      393
 31.120      409
 31.153      393
 31.186      370
 31.219      434
 31.252      479
 31.285      600
 31.318      623
 31.351      602
 31.384      676
 31.417      795
 31.450     1283
 31.483     3205
 31.516    11557
 31.549    21184
 31.582    11465
 31.615     3661
 31.648     1461
 31.681      967
 31.714      749
 31.747      657
 31.780      633
 31.813      720
 31.846     1399
 31.879     2874
 31.912     3030
 31.945     2368
 31.978     1344
 32.011     1116
 32.044     1795
 32.077     1654
 32.110      972
 32.143      712
 32.176      781
 32.209     1206
 32.242     3123
 32.275     7277
 32.308     9756
 32.341     6236
 32.374     2011
 32.407      937
 32.440      781
 32.473      893
 32.506     1674
 32.539     3787
 32.572     4811
 32.605     2912
 32.638     1228
 32.671      862
 32.704      733
 32.737      661
 32.770      560
 32.803      620
 32.836     1159
 32.869     2342
 32.902     2562
 32.935     1144
 32.968      557
 33.001      448
 33.034      390
 33.067      360
 33.100      337
 33.133      351
 33.166      357
 33.199      363
 33.232      347
 33.265      331
 33.298      347
 33.331      323
 33.364      331
 33.397      359
 33.430      384
 33.463      435
 33.496      603
 33.529     1415
 33.562     2786
 33.595     1759
 33.628      666
 33.661      492
 33.694      472
 33.727      645
 33.760     1338
 33.793     3196
 33.826     2570
 33.859      908
 33.892      618
 33.925      649
 33.958     1110
 33.991     3040
 34.024     3981
 34.057     1722
 34.090      764
 34.123      554
 34.156      531
 34.189      859
 34.222     1545
 34.255     1196
 34.288      857
 34.321     1078
 34.354     1059
 34.387      642
 34.420      464
 34.453      405
 34.486      398
 34.519      426
 34.552      437
 34.585      462
 34.618      704
 34.651     1101
 34.684      908
 34.717      544
 34.750      367
 34.783      335
 34.816      330
 34.849      328
 34.882      314
 34.915      325
 34.948      336
 34.981      320
 35.014      328
 35.047      355
 35.080      379
 35.113      405
 35.146      573
 35.179      962
 35.212     1039
 35.245      652
 35.278      407
 35.311      338
 35.344      332
 35.377      357
 35.410      365
 35.443      333
 35.476      319
 35.509      342
 35.542      321
 35.575      322
 35.608      349
 35.641      300
 35.674      317
 35.707      356
 35.740      339
 35.773      312
 35.806      345
 35.839      338
 35.872      366
 35.905      390
 35.938      425
 35.971      656
 36.004     1403
 36.037     2489
 36.070     1610
 36.103      635
 36.136      449
 36.169      370
 36.202      385
 36.235      369
 36.268      342
 36.301      353
 36.334      392
 36.367      525
 36.400     1079
 36.433     1048
 36.466      580
 36.499      390
 36.532      372
 36.565      362
 36.598      362
 36.631      351
 36.664      348
 36.697      364
 36.730      372
 36.763      425
 36.796      400
 36.829      465
 36.862      610
 36.895     1081
 36.928     2187
 36.961     2811
 36.994     3747
 37.027     2966
 37.060     1591
 37.093     1267
 37.126     1395
 37.159      926
 37.192      538
 37.225      439
 37.258      454
 37.291      493
 37.324      772
 37.357     1424
 37.390     1676
 37.423     1097
 37.456      628
 37.489      534
 37.522      582
 37.555      845
 37.588      938
 37.621      722
 37.654      672
 37.687      738
 37.720      658
 37.753      621
 37.786      754
 37.819     1157
 37.852     2351
 37.885     4466
 37.918     5787
 37.951     4770
 37.984     2739
 38.017     2100
 38.050     3520
 38.083     3819
 38.116     1692
 38.149      720
 38.182      537
 38.215      468
 38.248      433
 38.281      438
 38.314      489
 38.347      575
 38.380      521
 38.413      591
 38.446      954
 38.479     1169
 38.512      867
 38.545      609
 38.578      431
 38.611      386
 38.644      350
 38.677      340
 38.710      355
 38.743      348
 38.776      314
 38.809      319
 38.842      344
 38.875      340
 38.908      366
 38.941      331
 38.974      359
 39.007      419
 39.040      450
 39.073      620
 39.106     1398
 39.139     2144
 39.172     1923
 39.205      943
 39.238      499
 39.271      396
 39.304      372
 39.337      396
 39.370      381
 39.403      365
 39.436      384
 39.469      435
 39.502      424
 39.535      437
 39.568      499
 39.601      711
 39.634     1261
 39.667     1363
 39.700      858
 39.733      486
 39.766      357
 39.799      361
 39.832      371
 39.865      415
 39.898      585
 39.931      969
 39.964      940
 39.997      591
 40.030      411
 40.063      372
 40.096      366
 40.129      372
 40.162      399
 40.195      448
 40.228      491
 40.261      561
 40.294      687
 40.327     1164
 40.360     1839
 40.393     1650
 40.426      901
 40.459      597
 40.492      549
 40.525      771
 40.558      923
 40.591      665
 40.624      517
 40.657      789
 40.690     1129
 40.723      908
 40.756      572
 40.789      494
 40.822      421
 40.855      355
 40.888      356
 40.921      346
 40.954      343
 40.987      374
 41.020      393
 41.053      377
 41.086      348
 41.119      355
 41.152      377
 41.185      484
 41.218      633
 41.251      665
 41.284      440
 41.317      406
 41.350      388
 41.383      430
 41.416      454
 41.449      546
 41.482     1010
 41.515     2805
 41.548     5266
 41.581     2541
 41.614      865
 41.647      596
 41.680      465
 41.713      450
 41.746      414
 41.779      440
 41.812      429
 41.845      401
 41.878      475
 41.911      602
 41.944      909
 41.977      989
 42.010      679
 42.043      518
 42.076      551
 42.109      654
 42.142      876
 42.175     1717
 42.208     4666
 42.241     8830
 42.274     6325
 42.307     2515
 42.340      987
 42.373      698
 42.406      610
 42.439      539
 42.472      547
 42.505      492
 42.538      428
 42.571      401
 42.604      379
 42.637      361
 42.670      404
 42.703      439
 42.736      421
 42.769      422
 42.802      486
 42.835      601
 42.868      716
 42.901      832
 42.934      794
 42.967      694
 43.000      852
 43.033     1680
 43.066     4071
 43.099     6098
 43.132     4468
 43.165     1693
 43.198      897
 43.231      720
 43.264      671
 43.297      724
 43.330      832
 43.363     1108
 43.396     2070
 43.429     4497
 43.462     8953
 43.495    11307
 43.528     5954
 43.561     2073
 43.594     1101
 43.627      827
 43.660      802
 43.693      634
 43.726      496
 43.759      469
 43.792      462
 43.825      456
 43.858      451
 43.891      470
 43.924      429
 43.957      424
 43.990      464
 44.023      679
 44.056      770
 44.089      503
 44.122      418
 44.155      430
 44.188      499
 44.221      657
 44.254      760
 44.287      615
 44.320      720
 44.353      693
 44.386      694
 44.419      807
 44.452      604
 44.485      452
 44.518      426
 44.551      428
 44.584      480
 44.617      522
 44.650      451
 44.683      463
 44.716      540
 44.749      520
 44.782      432
 44.815      428
 44.848      417
 44.881      415
 44.914      521
 44.947      961
 44.980     1168
 45.013      756
 45.046      446
 45.079      402
 45.112      404
 45.145      491
 45.178      768
 45.211      856
 45.244      632
 45.277      470
 45.310      415
 45.343      412
 45.376      477
 45.409      505
 45.442      452
 45.475      392
 45.508      385
 45.541      380
 45.574      374
 45.607      394
 45.640      416
 45.673      438
 45.706      447
 45.739      543
 45.772      763
 45.805      896
 45.838      763
 45.871      602
 45.904      772
 45.937     1538
 45.970     2359
 46.003     1882
 46.036      886
 46.069      708
 46.102      790
 46.135      906
 46.168     1133
 46.201     1229
 46.234     1094
 46.267     1153
 46.300     1249
 46.333     1443
 46.366      927
 46.399      539
 46.432      469
 46.465      444
 46.498      416
 46.531      477
 46.564      525
 46.597      645
 46.630      981
 46.663     1819
 46.696     1851
 46.729      823
 46.762      489
 46.795      510
 46.828      477
 46.861      514
 46.894      483
 46.927      496
 46.960      494
 46.993      499
 47.026      470
 47.059      404
 47.092      390
 47.125      426
 47.158      447
 47.191      473
 47.224      465
 47.257      457
 47.290      660
 47.323      979
 47.356      849
 47.389      612
 47.422      503
 47.455      466
 47.488      485
 47.521      642
 47.554      730
 47.587     1254
 47.620     2003
 47.653     1658
 47.686      969
 47.719      730
 47.752      861
 47.785     1015
 47.818      941
 47.851      823
 47.884      958
 47.917     1831
 47.950     3653
 47.983     4158
 48.016     2563
 48.049     1189
 48.082      847
 48.115      814
 48.148      889
 48.181     1365
 48.214     2975
 48.247     6903
 48.280     9247
 48.313     5958
 48.346     2288
 48.379     1085
 48.412      755
 48.445      603
 48.478      556
 48.511      530
 48.544      490
 48.577      488
 48.610      467
 48.643      558
 48.676      675
 48.709      668
 48.742      608
 48.775      671
 48.808      761
 48.841      659
 48.874      755
 48.907     1048
 48.940     1059
 48.973      837
 49.006      547
 49.039      444
 49.072      394
 49.105      412
 49.138      451
 49.171      471
 49.204      475
 49.237      448
 49.270      389
 49.303      449
 49.336      524
 49.369      608
 49.402      554
 49.435      401
 49.468      414
 49.501      441
 49.534      411
 49.567      418
 49.600      406
 49.633      394
 49.666      440
 49.699      486
 49.732      457
 49.765      497
 49.798      553
 49.831      552
 49.864      509
 49.897      482
 49.930      467
 49.963      479
 49.996      585
 50.029      838
 50.062     1610
 50.095     1989
 50.128     1504
 50.161     1031
 50.194      953
 50.227      900
 50.260      709
 50.293      588
 50.326      608
 50.359      839
 50.392     1097
 50.425      932
 50.458      681
 50.491      663
 50.524      719
 50.557      659
 50.590      564
 50.623      594
 50.656      740
 50.689      780
 50.722      750
 50.755      867
 50.788      974
 50.821      919
 50.854      761
 50.887      622
 50.920      570
 50.953      557
 50.986      620
 51.019      751
 51.052      785
 51.085      837
 51.118     1160
 51.151     1287
 51.184      983
 51.217      936
 51.250     1265
 51.283     1532
 51.316     1792
 51.349     1486
 51.382      952
 51.415      845
 51.448      837
 51.481      898
 51.514     1014
 51.547      835
 51.580      679
 51.613      688
 51.646      624
 51.679      479
 51.712      414
 51.745      449
 51.778      453
 51.811      442
 51.844      439
 51.877      461
 51.910      451
 51.943      516
 51.976      547
 52.009      847
 52.042     1462
 52.075     2214
 52.108     3076
 52.141     3319
 52.174     2390
 52.207     1950
 52.240     1102
 52.273      769
 52.306      681
 52.339      854
 52.372     1207
 52.405     1389
 52.438     1365
 52.471     1113
 52.504      819
 52.537      652
 52.570      536
 52.603      491
 52.636      437
 52.669      446
 52.702      490
 52.735      594
 52.768      810
 52.801      882
 52.834      931
 52.867      956
 52.900      877
 52.933      785
 52.966      608
 52.999      517
 53.032      464
 53.065      425
 53.098      419
 53.131      409
 53.164      406
 53.197      414
 53.230      434
 53.263      493
 53.296      676
 53.329     1141
 53.362     1854
 53.395     1850
 53.428     1073
 53.461      648
 53.494      549
 53.527      520
 53.560      515
 53.593      498
 53.626      510
 53.659      520
 53.692      487
 53.725      477
 53.758      502
 53.791      573
 53.824      750
 53.857     1024
 53.890     1133
 53.923      991
 53.956      754
 53.989      651
 54.022      816
 54.055     1307
 54.088     1874
 54.121     1556
 54.154     1181
 54.187      942
 54.220      630
 54.253      545
 54.286      474
 54.319      473
 54.352      490
 54.385      430
 54.418      434
 54.451      462
 54.484      428
 54.517      482
 54.550      647
 54.583      856
 54.616      712
 54.649      569
 54.682      465
 54.715      427
 54.748      494
 54.781      419
 54.814      442
 54.847      473
 54.880      481
 54.913      548
 54.946      680
 54.979     1074
 55.012     1948
 55.045     1978
 55.078     1189
 55.111      704
 55.144      597
 55.177      508
 55.210      496
 55.243      560
 55.276      625
 55.309      756
 55.342      730
 55.375      652
 55.408      685
 55.441     1107
 55.474     1807
 55.507     1826
 55.540     1186
 55.573      744
 55.606      569
 55.639      572
 55.672      661
 55.705      678
 55.738      676
 55.771      663
 55.804      664
 55.837      614
 55.870      539
 55.903      491
 55.936      464
 55.969      482
 56.002      533
 56.035      684
 56.068      939
 56.101      978
 56.134      748
 56.167      611
 56.200      568
 56.233      639
 56.266      821
 56.299     1140
 56.332     1921
 56.365     3693
 56.398     4919
 56.431     3323
 56.464     1444
 56.497      831
 56.530      658
 56.563      676
 56.596      665
 56.629      610
 56.662      609
 56.695      840
 56.728     1376
 56.761     1534
 56.794     1051
 56.827      670
 56.860      580
 56.893      503
 56.926      536
 56.959      669
 56.992      795
 57.025      715
 57.058      609
 57.091      580
 57.124      538
 57.157      537
 57.190      550
 57.223      568
 57.256      701
 57.289      989
 57.322     1213
 57.355     1494
 57.388     2671
 57.421     5256
 57.454     5408
 57.487     2923
 57.520     1843
 57.553     1945
 57.586     1767
 57.619     1167
 57.652      866
 57.685      912
 57.718      995
 57.751      958
 57.784      866
 57.817      844
 57.850     1012
 57.883     1517
 57.916     1964
 57.949     1477
 57.982      953
 58.015      706
 58.048      691
 58.081      714
 58.114      656
 58.147      605
 58.180      562
 58.213      573
 58.246      584
 58.279      574
 58.312      567
 58.345      535
 58.378      536
 58.411      516
 58.444      496
 58.477      523
 58.510      562
 58.543      713
 58.576     1107
 58.609     1551
 58.642     1448
 58.675      957
 58.708      783
 58.741      966
 58.774     1414
 58.807     1568
 58.840     1106
 58.873      727
 58.906      621
 58.939      596
 58.972      553
 59.005      509
 59.038      509
 59.071      539
 59.104      583
 59.137      708
 59.170      987
 59.203     1245
 59.236     1218
 59.269      833
 59.302      611
 59.335      498
 59.368      522
 59.401      586
 59.434      614
 59.467      652
 59.500      576
 59.533      549
 59.566      575
 59.599      645
 59.632      913
 59.665     1412
 59.698     1523
 59.731     1067
 59.764      578
 59.797      525
 59.830      476
 59.863      545
 59.896      549
 59.929      540
 59.962      560
 59.995      534
 60.028      550
 60.061      542
 60.094      513
 60.127      532
 60.160      519
 60.193      533
 60.226      582
 60.259      700
 60.292      939
 60.325     1371
 60.358     1513
 60.391     1301
 60.424     1013
 60.457      836
 60.490      829
 60.523     1114
 60.556     1931
 60.589     2730
 60.622     2497
 60.655     1885
 60.688     2049
 60.721     3658
 60.754     5368
 60.787     4255
 60.820     2173
 60.853     1093
 60.886      765
 60.919      658
 60.952      601
 60.985      571
 61.018      550
 61.051      515
 61.084      511
 61.117      510
 61.150      513
 61.183      553
 61.216      679
 61.249      831
 61.282      796
 61.315      673
 61.348      621
 61.381      585
 61.414      595
 61.447      713
 61.480      845
 61.513      826
 61.546      762
 61.579      893
 61.612     1239
 61.645     1418
 61.678     1221
 61.711     1344
 61.744     1730
 61.777     1953
 61.810     2182
 61.843     2070
 61.876     1190
 61.909      763
 61.942      621
 61.975      595
 62.008      616
 62.041      710
 62.074      791
 62.107      729
 62.140      675
 62.173      691
 62.206      729
 62.239      805
 62.272      926
 62.305      753
 62.338      579
 62.371      537
 62.404      507
 62.437      637
 62.470      829
 62.503      790
 62.536      660
 62.569      590
 62.602      598
 62.635      770
 62.668      982
 62.701     1347
 62.734     1448
 62.767     1455
 62.800     1570
 62.833     1376
 62.866      957
 62.899      817
 62.932      889
 62.965      812
 62.998      712
 63.031      717
 63.064      751
 63.097      693
 63.130      610
 63.163      588
 63.196      526
 63.229      482
 63.262      458
 63.295      472
 63.328      465
 63.361      471
 63.394      467
 63.427      453
 63.460      464
 63.493      469
 63.526      472
 63.559      493
 63.592      482
 63.625      450
 63.658      435
 63.691      429
 63.724      417
 63.757      433
 63.790      466
 63.823      485
 63.856      526
 63.889      617
 63.922      667
 63.955      601
 63.988      551
 64.021      563
 64.054      583
 64.087      618
 64.120      730
 64.153      735
 64.186      578
 64.219      512
 64.252      499
 64.285      542
 64.318      668
 64.351      789
 64.384      704
 64.417      562
 64.450      479
 64.483      487
 64.516      507
 64.549      498
 64.582      517
 64.615      493
 64.648      500
 64.681      460
 64.714      474
 64.747      508
 64.780      549
 64.813      587
 64.846      685
 64.879      737
 64.912      669
 64.945      776
 64.978      838
 65.011      871
 65.044     1297
 65.077     2167
 65.110     4153
 65.143     4518
 65.176     2640
 65.209     1481
 65.242     1089
 65.275      996
 65.308     1066
 65.341     1378
 65.374     1448
 65.407     1214
 65.440      960
 65.473      741
 65.506      659
 65.539      651
 65.572      731
 65.605      682
 65.638      754
 65.671      865
 65.704     1156
 65.737     1817
 65.770     3801
 65.803     7268
 65.836     7802
 65.869     4710
 65.902     2283
 65.935     1322
 65.968     1132
 66.001     1284
 66.034     1522
 66.067     1517
 66.100     1184
 66.133      856
 66.166      747
 66.199      801
 66.232     1023
 66.265     1212
 66.298     1095
 66.331      865
 66.364      717
 66.397      646
 66.430      658
 66.463      737
 66.496      809
 66.529      799
 66.562      811
 66.595      913
 66.628      976
 66.661      919
 66.694      858
 66.727      886
 66.760      981
 66.793     1117
 66.826     1516
 66.859     2296
 66.892     4407
 66.925     8908
 66.958    12570
 66.991    10020
 67.024     4964
 67.057     2449
 67.090     1496
 67.123     1320
 67.156     1342
 67.189     1271
 67.222      994
 67.255      794
 67.288      696
 67.321      640
 67.354      628
 67.387      594
 67.420      597
 67.453      611
 67.486      673
 67.519      737
 67.552      731
 67.585      677
 67.618      681
 67.651      671
 67.684      797
 67.717      969
 67.750      977
 67.783     1115
 67.816      931
 67.849      750
 67.882      813
 67.915      822
 67.948     1128
 67.981     1874
 68.014     2783
 68.047     2878
 68.080     2643
 68.113     3546
 68.146     5951
 68.179     6766
 68.212     4849
 68.245     2703
 68.278     1631
 68.311     1193
 68.344     1204
 68.377     1062
 68.410      852
 68.443      727
 68.476      693
 68.509      668
 68.542      643
 68.575      708
 68.608      700
 68.641      611
 68.674      576
 68.707      609
 68.740      669
 68.773      780
 68.806     1012
 68.839     1112
 68.872      998
 68.905      992
 68.938      962
 68.971      747
 69.004      593
 69.037      545
 69.070      503
 69.103      475
 69.136      488
 69.169      513
 69.202      536
 69.235      559
 69.268      550
 69.301      549
 69.334      544
 69.367      553
 69.400      520
 69.433      487
 69.466      509
 69.499      531
 69.532      577
 69.565      642
 69.598      712
 69.631      794
 69.664      867
 69.697      812
 69.730      832
 69.763      932
 69.796      795
 69.829      655
 69.862      567
 69.895      579
 69.928      595
 69.961      601
 69.994      623
 70.027      684
 70.060      822
 70.093      987
 70.126     1051
 70.159      922
 70.192      683
 70.225      562
 70.258      490
 70.291      537
 70.324      501
 70.357      547
 70.390      472
 70.423      511
 70.456      603
 70.489      597
 70.522      622
 70.555      572
 70.588      553
 70.621      578
 70.654      564
 70.687      550
 70.720      582
 70.753      622
 70.786      715
 70.819      902
 70.852      921
 70.885      855
 70.918      997
 70.951     1162
 70.984     1045
 71.017      777
 71.050      731
 71.083      780
 71.116      685
 71.149      584
 71.182      569
 71.215      621
 71.248      685
 71.281      804
 71.314      923
 71.347     1006
 71.380      962
 71.413      888
 71.446      865
 71.479      780
 71.512      692
 71.545      717
 71.578      838
 71.611     1018
 71.644      986
 71.677      752
 71.710      632
 71.743      588
 71.776      604
 71.809      663
 71.842      717
 71.875      724
 71.908      670
 71.941      641
 71.974      594
 72.007      566
 72.040      583
 72.073      688
 72.106      750
 72.139      888
 72.172     1118
 72.205     1350
 72.238     1397
 72.271     1204
 72.304      886
 72.337      718
 72.370      686
 72.403      679
 72.436      654
 72.469      821
 72.502      824
 72.535      742
 72.568      752
 72.601      705
 72.634      644
 72.667      663
 72.700      652
 72.733      693
 72.766      667
 72.799      655
 72.832      587
 72.865      562
 72.898      576
 72.931      532
 72.964      632
 72.997      717
 73.030      935
 73.063     1230
 73.096     1251
 73.129     1037
 73.162      917
 73.195      962
 73.228      960
 73.261      941
 73.294     1016
 73.327      974
 73.360      799
 73.393      662
 73.426      593
 73.459      602
 73.492      536
 73.525      576
 73.558      594
 73.591      586
 73.624      589
 73.657      579
 73.690      703
 73.723      938
 73.756     1224
 73.789     1317
 73.822     1009
 73.855      732
 73.888      607
 73.921      583
 73.954      613
 73.987      618
 74.020      595
 74.053      579
 74.086      544
 74.119      554
 74.152      670
 74.185      784
 74.218      833
 74.251      921
 74.284     1063
 74.317     1103
 74.350      977
 74.383      813
 74.416      679
 74.449      585
 74.482      590
 74.515      605
 74.548      690
 74.581      868
 74.614      999
 74.647     1142
 74.680     1452
 74.713     1683
 74.746     1441
 74.779      999
 74.812      729
 74.845      651
 74.878      668
 74.911      759
 74.944      842
 74.977      748
 75.010      624
 75.043      609
 75.076      619
 75.109      611
 75.142      627
 75.175      796
 75.208      937
 75.241     1054
 75.274      954
 75.307      672
 75.340      642
 75.373      574
 75.406      552
 75.439      606
 75.472      616
 75.505      669
 75.538      845
 75.571     1171
 75.604     1908
 75.637     2356
 75.670     1889
 75.703     1237
 75.736      961
 75.769      753
 75.802      767
 75.835      719
 75.868      765
 75.901      816
 75.934      829
 75.967      865
 76.000      946
 76.033      958
 76.066     1141
 76.099     1684
 76.132     2272
 76.165     1984
 76.198     1399
 76.231     1017
 76.264      981
 76.297     1107
 76.330     1291
 76.363     1280
 76.396     1186
 76.429      993
 76.462      830
 76.495      757
 76.528      716
 76.561      693
 76.594      756
 76.627      841
 76.660      815
 76.693      809
 76.726      958
 76.759     1125
 76.792     1053
 76.825      894
 76.858      780
 76.891      677
 76.924      654
 76.957      646
 76.990      674
 77.023      745
 77.056      765
 77.089      692
 77.122      614
 77.155      594
 77.188      642
 77.221      670
 77.254      696
 77.287      814
 77.320      937
 77.353      860
 77.386      714
 77.419      668
 77.452      700
 77.485      707
 77.518      689
 77.551      649
 77.584      647
 77.617      669
 77.650      785
 77.683      961
 77.716     1244
 77.749     1184
 77.782      881
 77.815      757
 77.848      743
 77.881      794
 77.914      848
 77.947      829
 77.980      820
 78.013      958
 78.046     1344
 78.079     1389
 78.112     1076
 78.145      748
 78.178      644
 78.211      614
 78.244      601
 78.277      601
 78.310      583
 78.343      566
 78.376      577
 78.409      554
 78.442      615
 78.475      663
 78.508      756
 78.541      736
 78.574      670
 78.607      660
 78.640      677
 78.673      717
 78.706      897
 78.739     1028
 78.772     1098
 78.805     1064
 78.838      934
 78.871      901
 78.904      945
 78.937     1056
 78.970     1254
 79.003     1380
 79.036     1169
 79.069      873
 79.102      741
 79.135      698
 79.168      661
 79.201      633
 79.234      600
 79.267      567
 79.300      543
 79.333      557
 79.366      606
 79.399      667
 79.432      696
 79.465      691
 79.498      705
 79.531      707
 79.564      712
 79.597      726
 79.630      716
 79.663      700
 79.696      647
 79.729      603
 79.762      596
 79.795      649
 79.828      707
 79.861      762
 79.894      763
 79.927      708
 79.960      637
 79.993      579
 80.026      575
 80.059      558
 80.092      569
 80.125      613
 80.158      605
 80.191      703
 80.224      667
 80.257      685
 80.290      729
 80.323      831
 80.356      967
 80.389     1102
 80.422     1104
 80.455      934
 80.488      816
 80.521      811
 80.554      913
 80.587     1094
 80.620     1124
 80.653      961
 80.686      770
 80.719      705
 80.752      738
 80.785      674
 80.818      601
 80.851      733
 80.884      718
 80.917      889
 80.950     1018
 80.983      948
 81.016      752
 81.049      696
 81.082      790
 81.115      864
 81.148      897
 81.181      859
 81.214      827
 81.247      869
 81.280      883
 81.313      970
 81.346      874
 81.379      775
 81.412      699
 81.445      622
 81.478      703
 81.511      758
 81.544      730
 81.577      711
 81.610      822
 81.643      991
 81.676     1155
 81.709     1275
 81.742     1316
 81.775     1278
 81.808     1156
 81.841     1004
 81.874      913
 81.907      826
 81.940      782
 81.973      795
 82.006      721
 82.039      643
 82.072      639
 82.105      601
 82.138      576
 82.171      583
 82.204      622
 82.237      714
 82.270      799
 82.303      891
 82.336      926
 82.369     1027
 82.402     1157
 82.435     1107
 82.468      920
 82.501      769
 82.534      659
 82.567      637
 82.600      609
 82.633      614
 82.666      667
 82.699      734
 82.732      870
 82.765     1116
 82.798     1203
 82.831     1089
 82.864      971
 82.897      848
 82.930      808
 82.963      817
 82.996      874
 83.029     1053
 83.062     1255
 83.095     1172
 83.128      875
 83.161      800
 83.194      698
 83.227      637
 83.260      633
 83.293      642
 83.326      621
 83.359      640
 83.392      718
 83.425      691
 83.458      782
 83.491      772
 83.524      740
 83.557      731
 83.590      690
 83.623      667
 83.656      755
 83.689      904
 83.722      896
 83.755      944
 83.788      925
 83.821      845
 83.854      743
 83.887      642
 83.920      657
 83.953      698
 83.986      748
 84.019      936
 84.052     1254
 84.085     1635
 84.118     1762
 84.151     1501
 84.184     1149
 84.217      863
 84.250      743
 84.283      644
 84.316      589
 84.349      570
 84.382      570
 84.415      579
 84.448      580
 84.481      602
 84.514      622
 84.547      619
 84.580      624
 84.613      641
 84.646      713
 84.679      860
 84.712      911
 84.745      836
 84.778      739
 84.811      632
 84.844      575
 84.877      583
 84.910      619
 84.943      620
 84.976      608
 85.009      626
 85.042      629
 85.075      605
 85.108      605
 85.141      597
 85.174      675
 85.207      738
 85.240      819
 85.273      887
 85.306      872
 85.339      821
 85.372      876
 85.405      914
 85.438      875
 85.471      796
 85.504      693
 85.537      596
 85.570      573
 85.603      547
 85.636      608
 85.669      665
 85.702      690
 85.735      786
 85.768      994
 85.801     1480
 85.834     1705
 85.867     1610
 85.900     1248
 85.933      984
 85.966      988
 85.999      842
 86.032      801
 86.065      755
 86.098      805
 86.131      987
 86.164      990
 86.197      958
 86.230      946
 86.263      997
 86.296      901
 86.329      802
 86.362      725
 86.395      711
 86.428      700
 86.461      769
 86.494      763
 86.527      855
 86.560      828
 86.593      817
 86.626      745
 86.659      699
 86.692      727
 86.725      804
 86.758      921
 86.791     1126
 86.824     1245
 86.857     1169
 86.890     1105
 86.923     1189
 86.956     1366
 86.989     1282
 87.022     1101
 87.055     1002
 87.088     1012
 87.121     1141
 87.154     1441
 87.187     1857
 87.220     2062
 87.253     1757
 87.286     1274
 87.319      982
 87.352      849
 87.385      846
 87.418      869
 87.451      893
 87.484      926
 87.517     1009
 87.550     1161
 87.583     1437
 87.616     1599
 87.649     1403
 87.682     1104
 87.715      867
 87.748      752
 87.781      742
 87.814      709
 87.847      664
 87.880      654
 87.913      632
 87.946      642
 87.979      665
 88.012      663
 88.045      596
 88.078      618
 88.111      646
 88.144      732
 88.177      790
 88.210      865
 88.243      911
 88.276      906
 88.309      964
 88.342      872
 88.375      812
 88.408      846
 88.441      894
 88.474      952
 88.507     1030
 88.540      948
 88.573      951
 88.606      858
 88.639      897
 88.672      866
 88.705      781
 88.738      688
 88.771      625
 88.804      624
 88.837      650
 88.870      635
 88.903      659
 88.936      701
 88.969      813
 89.002      918
 89.035     1040
 89.068     1028
 89.101      981
 89.134      882
 89.167      862
 89.200      785
 89.233      706
 89.266      670
 89.299      659
 89.332      671
 89.365      685
 89.398      774
 89.431      838
 89.464      814
 89.497      794
 89.530      793
 89.563      866
 89.596      932
 89.629      978
 89.662      981
 89.695      926
 89.728      821
 89.761      740
 89.794      706
 89.827      642
 89.860      648
 89.893      689
 89.926      698
 89.959      767
 89.992      860
 90.025      969
 90.058     1005
 90.091      924
 90.124      850
 90.157      800
 90.190      779
 90.223      792
 90.256      865
 90.289      913
 90.322     1016
 90.355     1116
 90.388     1289
 90.421     1460
 90.454     1318
 90.487     1046
 90.520      846
 90.553      771
 90.586      695
 90.619      693
 90.652      693
 90.685      773
 90.718      952
 90.751     1167
 90.784     1487
 90.817     1648
 90.850     1368
 90.883     1204
 90.916     1061
 90.949      933
 90.982      906
 91.015      788
 91.048      788
 91.081      770
 91.114      688
 91.147      660
 91.180      658
 91.213      606
 91.246      635
 91.279      673
 91.312      719
 91.345      751
 91.378      870
 91.411     1075
 91.444     1147
 91.477     1090
 91.510     1078
 91.543      977
 91.576      866
 91.609      743
 91.642      680
 91.675      643
 91.708      612
 91.741      617
 91.774      596
 91.807      614
 91.840      647
 91.873      710
 91.906      698
 91.939      721
 91.972      745
 92.005      822
 92.038      860
 92.071      903
 92.104      971
 92.137     1053
 92.170     1021
 92.203      927
 92.236      805
 92.269      706
 92.302      688
 92.335      693
 92.368      652
 92.401      650
 92.434      627
 92.467      615
 92.500      632
 92.533      584
 92.566      587
 92.599      610
 92.632      595
 92.665      609
 92.698      630
 92.731      626
 92.764      633
 92.797      655
 92.830      641
 92.863      631
 92.896      609
 92.929      635
 92.962      651
 92.995      662
 93.028      657
 93.061      669
 93.094      628
 93.127      641
 93.160      655
 93.193      714
 93.226      784
 93.259      853
 93.292      973
 93.325      963
 93.358      902
 93.391      882
 93.424      959
 93.457     1169
 93.490     1527
 93.523     1648
 93.556     1435
 93.589     1163
 93.622      934
 93.655      889
 93.688      926
 93.721     1124
 93.754     1352
 93.787     1455
 93.820     1297
 93.853     1063
 93.886     1002
 93.919     1108
 93.952     1153
 93.985     1162
 94.018     1191
 94.051     1067
 94.084      935
 94.117      781
 94.150      699
 94.183      685
 94.216      681
 94.249      738
 94.282      737
 94.315      765
 94.348      838
 94.381      853
 94.414      984
 94.447     1139
 94.480     1269
 94.513     1522
 94.546     1683
 94.579     1582
 94.612     1354
 94.645     1099
 94.678      914
 94.711      849
 94.744      837
 94.777      861
 94.810      926
 94.843      949
 94.876      885
 94.909      867
 94.942      833
 94.975      771
 95.008      822
 95.041     1012
 95.074     1231
 95.107     1471
 95.140     1641
 95.173     1542
 95.206     1339
 95.239     1246
 95.272     1222
 95.305     1225
 95.338     1214
 95.371     1091
 95.404      941
 95.437      904
 95.470      964
 95.503     1071
 95.536     1148
 95.569     1119
 95.602     1079
 95.635     1004
 95.668     1008
 95.701     1100
 95.734     1210
 95.767     1229
 95.800     1134
 95.833     1198
 95.866     1357
 95.899     1511
 95.932     1579
 95.965     1625
 95.998     1474
 96.031     1245
 96.064     1163
 96.097     1125
 96.130     1105
 96.163     1145
 96.196     1111
 96.229     1052
 96.262      936
 96.295      898
 96.328      983
 96.361     1009
 96.394     1087
 96.427     1204
 96.460     1101
 96.493     1191
 96.526     1071
 96.559     1087
 96.592     1163
 96.625     1087
 96.658     1125
 96.691     1108
 96.724     1075
 96.757     1015
 96.790      868
 96.823      785
 96.856      733
 96.889      723
 96.922      722
 96.955      724
 96.988      766
 97.021      824
 97.054      869
 97.087      860
 97.120      857
 97.153      859
 97.186      925
 97.219      973
 97.252      959
 97.285      898
 97.318      860
 97.351      833
 97.384      839
 97.417      863
 97.450      872
 97.483      896
 97.516      922
 97.549      938
 97.582      987
 97.615     1005
 97.648      988
 97.681      932
 97.714      881
 97.747      909
 97.780     1053
 97.813     1332
 97.846     1709
 97.879     1885
 97.912     1583
 97.945     1232
 97.978     1088
 98.011     1098
 98.044     1200
 98.077     1223
 98.110     1178
 98.143     1127
 98.176     1090
 98.209     1074
 98.242      987
 98.275      917
 98.308      873
 98.341      848
 98.374      854
 98.407      912
 98.440     1000
 98.473     1008
 98.506      978
 98.539      978
 98.572      905
 98.605      973
 98.638     1079
 98.671     1169
 98.704     1176
 98.737     1128
 98.770     1173
 98.803     1147
 98.836     1151
 98.869     1126
 98.902     1138
 98.935     1107
 98.968      993
 99.001     1009
 99.034      963
 99.067      782
 99.100      788
 99.133      786
 99.166      731
 99.199      737
 99.232      712
 99.265      691
 99.298      757
 99.331      813
 99.364      834
 99.397      769
 99.430      773
 99.463      885
 99.496      949
 99.529     1001
 99.562     1031
 99.595     1052
 99.628     1048
 99.661     1026
 99.694      936
 99.727      861
 99.760      791
 99.793      742
 99.826      734
 99.859      739
 99.892      686
 99.925      671
 99.958      714
 99.991      777
100.024      822
100.057      780
100.090      748
100.123      723
100.156      690
100.189      682
100.222      690
100.255      707
100.288      741
100.321      822
100.354      854
100.387      818
100.420      796
100.453      749
100.486      717
100.519      738
100.552      754
100.585      786
100.618      868
100.651      863
100.684      806
100.717      827
100.750      916
100.783      911
100.816      958
100.849     1101
100.882     1256
100.915     1457
100.948     1578
100.981     1633
101.014     1426
101.047     1192
101.080     1016
101.113      884
101.146      802
101.179      747
101.212      728
101.245      730
101.278      690
101.311      702
101.344      696
101.377      758
101.410      769
101.443      746
101.476      737
101.509      696
101.542      719
101.575      643
101.608      664
101.641      702
101.674      724
101.707      818
101.740      856
101.773      928
101.806     1094
101.839     1315
101.872     1573
101.905     2266
101.938     2864
101.971     2877
102.004     2465
102.037     1892
102.070     1481
102.103     1215
102.136     1040
102.169      948
102.202      980
102.235      981
102.268      936
102.301      838
102.334      799
102.367      802
102.400      859
102.433      943
102.466      953
102.499      887
102.532      783
102.565      782
102.598      791
102.631      825
102.664      816
102.697      819
102.730      889
102.763      926
102.796      849
102.829      784
102.862      819
102.895      845
102.928      828
102.961      856
102.994      897
103.027      915
103.060      943
103.093      936
103.126      900
103.159      899
103.192      935
103.225      910
103.258      853
103.291      832
103.324      818
103.357      772
103.390      776
103.423      764
103.456      768
103.489      813
103.522      883
103.555      967
103.588     1105
103.621     1201
103.654     1200
103.687     1168
103.720     1061
103.753      958
103.786      852
103.819      780
103.852      711
103.885      732
103.918      720
103.951      694
103.984      745
104.017      729
104.050      751
104.083      742
104.116      772
104.149      784
104.182      755
104.215      839
104.248      895
104.281      963
104.314      984
104.347      936
104.380      940
104.413      851
104.446      924
104.479      916
104.512      887
104.545      880
104.578      866
104.611      872
104.644      861
104.677      802
104.710      819
104.743      870
104.776      883
104.809      842
104.842      794
104.875      790
104.908      825
104.941      846
104.974      853
105.007      771
105.040      762
105.073      830
105.106      895
105.139      930
105.172      930
105.205      836
105.238      764
105.271      783
105.304      753
105.337      759
105.370      778
105.403      778
105.436      805
105.469      877
105.502      936
105.535      976
105.568     1041
105.601     1180
105.634     1360
105.667     1372
105.700     1240
105.733     1087
105.766      962
105.799      931
105.832      884
105.865      860
105.898      867
105.931      916
105.964     1015
105.997     1056
106.030      979
106.063      914
106.096      932
106.129      988
106.162      934
106.195      807
106.228      765
106.261      756
106.294      775
106.327      786
106.360      750
106.393      770
106.426      755
106.459      762
106.492      763
106.525      800
106.558      861
106.591      935
106.624      953
106.657      975
106.690      924
106.723      835
106.756      871
106.789      812
106.822      791
106.855      743
106.888      799
106.921      753
106.954      698
106.987      725
107.020      723
107.053      755
107.086      801
107.119      818
107.152      772
107.185      846
107.218      873
107.251      903
107.284      902
107.317      846
107.350      787
107.383      790
107.416      819
107.449      879
107.482      909
107.515      840
107.548      795
107.581      761
107.614      777
107.647      841
107.680      805
107.713      795
107.746      791
107.779      769
107.812      796
107.845      812
107.878      837
107.911      837
107.944      852
107.977      851
108.010      870
108.043      922
108.076      916
108.109      905
108.142      886
108.175      901
108.208      978
108.241     1006
108.274      992
108.307      974
108.340      969
108.373     1016
108.406     1102
108.439     1236
108.472     1403
108.505     1425
108.538     1406
108.571     1416
108.604     1431
108.637     1523
108.670     1597
108.703     1698
108.736     1753
108.769     1655
108.802     1418
108.835     1209
108.868     1065
108.901     1014
108.934     1096
108.967     1064
109.000     1161
109.033     1209
109.066     1251
109.099     1450
109.132     1422
109.165     1447
109.198     1255
109.231     1086
109.264      946
109.297      856
109.330      781
109.363      831
109.396      792
109.429      755
109.462      791
109.495      786
109.528      786
109.561      794
109.594      863
109.627      873
109.660      983
109.693     1048
109.726      975
109.759      945
109.792      932
109.825      893
109.858      933
109.891      902
109.924      953
109.957      951
109.990      960
110.023      993
110.056     1029
110.089      954
110.122      943
110.155      964
110.188     1006
110.221     1081
110.254     1166
110.287     1325
110.320     1448
110.353     1404
110.386     1247
110.419     1081
110.452     1002
110.485      945
110.518      850
110.551      818
110.584      798
110.617      762
110.650      738
110.683      741
110.716      781
110.749      821
110.782      854
110.815      878
110.848      925
110.881      964
110.914      937
110.947      879
110.980      829
111.013      794
111.046      738
111.079      763
111.112      789
111.145      805
111.178      868
111.211      897
111.244      930
111.277      944
111.310      933
111.343      923
111.376      886
111.409      936
111.442      890
111.475      888
111.508      946
111.541     1100
111.574     1148
111.607     1140
111.640     1220
111.673     1213
111.706     1282
111.739     1228
111.772     1199
111.805     1203
111.838     1135
111.871     1104
111.904     1044
111.937      932
111.970      905
112.003      799
112.036      831
112.069      842
112.102      818
112.135      830
112.168      885
112.201      848
112.234      922
112.267      864
112.300      880
112.333      814
112.366      792
112.399      843
112.432      867
112.465      908
112.498      931
112.531      945
112.564     1028
112.597     1039
112.630     1003
112.663      998
112.696     1044
112.729     1072
112.762     1237
112.795     1501
112.828     1742
112.861     1731
112.894     1686
112.927     1471
112.960     1283
112.993     1195
113.026     1117
113.059     1096
113.092     1060
113.125      964
113.158      946
113.191      934
113.224      901
113.257      906
113.290      915
113.323      904
113.356      866
113.389      909
113.422      971
113.455      964
113.488      967
113.521      959
113.554      955
113.587      940
113.620      914
113.653      892
113.686      869
113.719      853
113.752      843
113.785      834
113.818      874
113.851      876
113.884      884
113.917      891
113.950      893
113.983      874
114.016      871
114.049      856
114.082      828
114.115      825
114.148      856
114.181      844
114.214      835
114.247      865
114.280      910
114.313      973
114.346     1033
114.379     1109
114.412     1119
114.445     1247
114.478     1267
114.511     1268
114.544     1173
114.577     1122
114.610     1052
114.643      946
114.676      860
114.709      873
114.742      858
114.775      823
114.808      820
114.841      821
114.874      836
114.907      797
114.940      781
114.973      897
115.006      916
115.039      976
115.072      962
115.105     1023
115.138     1035
115.171     1069
115.204     1085
115.237     1029
115.270      945
115.303      896
115.336      837
115.369      824
115.402      873
115.435      856
115.468      863
115.501      914
115.534      917
115.567      939
115.600      924
115.633      961
115.666      962
115.699      965
115.732      985
115.765      954
115.798      914
115.831      924
115.864      945
115.897      909
115.930      864
115.963      880
115.996      901
116.029      885
116.062      881
116.095      879
116.128      842
116.161      802
116.194      789
116.227      790
116.260      792
116.293      804
116.326      829
116.359      843
116.392      872
116.425      882
116.458      890
116.491      841
116.524      826
116.557      767
116.590      797
116.623      806
116.656      768
116.689      764
116.722      770
116.755      768
116.788      761
116.821      777
116.854      753
116.887      802
116.920      756
116.953      755
116.986      740
117.019      729
117.052      744
117.085      765
117.118      745
117.151      777
117.184      839
117.217      784
117.250      864
117.283      811
117.316      927
117.349      992
117.382     1070
117.415     1082
117.448     1105
117.481     1072
117.514     1056
117.547     1008
117.580      931
117.613      923
117.646      857
117.679      853
117.712      893
117.745      901
117.778      887
117.811      931
117.844      968
117.877      971
117.910      927
117.943      909
117.976      858
118.009      843
118.042      869
118.075      929
118.108      995
118.141      984
118.174      990
118.207      974
118.240      934
118.273      933
118.306      952
118.339      984
118.372      992
118.405     1031
118.438     1059
118.471     1064
118.504     1047
118.537     1100
118.570     1202
118.603     1238
118.636     1277
118.669     1320
118.702     1387
118.735     1464
118.768     1532
118.801     1558
118.834     1497
118.867     1500
118.900     1468
118.933     1435
118.966     1480
118.999     1503
119.032     1330
119.065     1160
119.098     1062
119.131      956
119.164      898
119.197      799
119.230      807
119.263      876
119.296      870
119.329      850
119.362      819
119.395      838
119.428      798
119.461      864
119.494      899
119.527      911
119.560      981
119.593     1036
119.626     1074
119.659     1105
119.692     1202
119.725     1255
119.758     1182
119.791     1133
119.824     1087
119.857     1107
119.890     1117
119.923     1169
119.956     1166
119.989     1162




_exptl_crystal_density_diffrn
4.342
_refine_ls_goodness_of_fit_all
2.001
_cell_formula_units_Z
8
_pd_meas_scan_method
step
_pd_proc_ls_profile_function
'TCHZ-pseudo Voigt'
_pd_proc_2theta_range_min
5
_pd_char_particle_morphology
'irregular'
_chemical_formula_moiety
'Al9 La1 O19 Ti2'
_cell_length_a
22.59355(18)
_cell_length_b
10.99919(9)
_pd_proc_info_excluded_regions
none
_cell_length_c
9.72968(7)
_pd_proc_2theta_range_inc
0.033
_pd_proc_ls_prof_wR_factor
0.06704
_pd_spec_mounting
; flat plate
;
_diffrn_radiation_type
'Cu K\a~1~'
_chemical_formula_weight
781.47
_computing_structure_refinement
'Topas Academic v4.1 (Coelho, 2007)'
_pd_proc_ls_background_function
'Chebychev polynomial, order 3'
_refine_ls_weighting_scheme
'sigma'
_cell_angle_gamma
90
_cell_measurement_temperature
293.0(10)
_pd_meas_2theta_range_inc
0.033
_pd_char_colour
'pale yellow'
_refine_ls_shift/su_max
0.001
_pd_proc_ls_prof_R_factor
0.04939
_diffrn_radiation_monochromator
'Ge, Johansson type, primary'
_pd_meas_number_of_points
3485
_cell_volume
2390.97(3)
_pd_prep_temperature
1773.0(10)
_pd_proc_ls_prof_wR_expected
0.03350
_diffrn_ambient_temperature
293.0(10)
_exptl_absorpt_coefficient_mu
46.126
_space_group_name_Hall
'-C 2yc'
_space_group_name_H-M_alt
'C 1 2/c 1'
_diffrn_radiation_wavelength
1.54059
_pd_spec_shape
'irregular'
_pd_proc_2theta_range_max
120
_diffrn_measurement_device_type
'PANalytical X'Pert PRO MPD'
_cell_angle_alpha
90
_refine_ls_number_parameters
109
_pd_meas_2theta_range_min
5
_chemical_formula_sum
'Al9 La1 O19 Ti2'
_cell_angle_beta
98.5634(5)
_space_group_crystal_system
monoclinic
_pd_meas_2theta_range_max
120
_pd_proc_wavelength
1.54059
_pd_spec_mount_mode
'reflection'
_pd_proc_ls_pref_orient_corr
none
loop_
_symmetry_equiv_pos_as_xyz

;x, y, z
;

;-x, y, -z+1/2
;

;-x, -y, -z
;

;x, -y, z+1/2
;

;x+1/2, y+1/2, z
;

;-x+1/2, y+1/2, -z+1/2
;

;-x+1/2, -y+1/2, -z
;

;x+1/2, -y+1/2, z+1/2
;

loop_
_atom_site_type_symbol
_atom_site_label
_atom_site_fract_x
_atom_site_fract_y
_atom_site_fract_z
_atom_site_occupancy
_atom_site_symmetry_multiplicity
La La1 0.44578(8) 0.8695(3) 0.06524(17) 1 8
Ti Ti1 0.6045(2) 0.8814(9) 0.1285(5) 1 8
Ti Ti2 0.8105(2) 0.8820(8) 0.8692(5) 1 8
Al Al1 0.7717(3) 0.1275(12) 0.6791(8) 1 8
Al Al2 0.6944(5) 0.2612(9) 0.9082(10) 1 8
Al Al3 0.5299(3) 0.6259(10) 0.0912(9) 1 8
Al Al4 0.5 0.6247(16) 0.75 1 4
Al Al5 0.6056(5) 0.7615(9) 0.8653(10) 1 8
Al Al6 0.3985(4) 0.6282(16) 0.8862(9) 1 8
Al Al7 0.6047(5) 0.4902(10) 0.8682(11) 1 8
Al Al8 0.6936(3) 0.1291(14) 0.1587(8) 1 8
Al Al9 0.6963(4) 0.9933(9) 0.9094(10) 1 8
Al Al10 0.5 0.8835(14) 0.75 1 4
O O1 0.6549(7) 0.871(4) 0.8076(15) 1 8
O O2 0.5457(10) 0.766(2) 0.167(2) 1 8
O O3 0.5473(11) 0.999(2) 0.169(2) 1 8
O O4 0.7401(6) 0.132(2) 0.0046(15) 1 8
O O5 0.7548(7) 0.758(3) 0.7398(15) 1 8
O O6 0.5530(7) 0.627(3) 0.9240(16) 1 8
O O7 0.3544(6) 0.873(3) 0.1926(15) 1 8
O O8 0.7557(6) 0.891(2) 0.0024(16) 1 8
O O9 0.3497(10) 1.002(2) 0.941(2) 1 8
O O10 0.8513(10) 0.005(2) 0.949(2) 1 8
O O11 0.5531(11) 0.493(2) 0.193(2) 1 8
O O12 0.4497(7) 0.628(3) 0.0591(16) 1 8
O O13 0.2481(7) 0.507(3) 0.2595(17) 1 8
O O14 0.3564(10) 0.751(2) 0.953(2) 1 8
O O15 0.5463(10) 0.246(2) 0.205(2) 1 8
O O16 0.4455(7) 0.130(3) 0.0800(15) 1 8
O O17 0.3509(6) 0.370(3) 0.2042(14) 1 8
O O18 0.3474(7) 0.628(4) 0.1988(16) 1 8
O O19 0.6409(10) 0.751(2) 0.038(2) 1 8

loop_
_atom_site_aniso_label
_atom_site_aniso_u_11
_atom_site_aniso_u_22
_atom_site_aniso_u_33
_atom_site_aniso_u_12
_atom_site_aniso_u_13
_atom_site_aniso_u_23
_atom_site_aniso_type_symbol
? ? ? ? ? ? ? ?

loop_
_geom_bond_atom_site_label_1
_geom_bond_atom_site_label_2
_geom_bond_site_symmetry_1
_geom_bond_site_symmetry_2
_geom_bond_distance
_geom_bond_publ_flag
La1 O2 . . 2.59(2) yes
La1 O3 . . 2.76(2) yes
La1 O7 . . 2.562(14) yes
La1 O12 . . 2.66(3) yes
La1 O9 . 1_554 2.74(2) yes
La1 O14 . 1_554 2.51(2) yes
La1 O16 . 1_565 2.87(3) yes
La1 O2 . 2_655 2.82(2) yes
La1 O3 . 2_655 2.94(2) yes
La1 O3 . 3_675 2.72(2) yes
Ti1 O2 . . 1.91(2) yes
Ti1 O3 . . 1.91(2) yes
Ti1 O19 . . 1.93(2) yes
Ti1 O7 . 2_655 1.849(15) yes
Ti1 O16 . 3_665 2.174(15) yes
Ti1 O9 . 3_676 1.84(2) yes
Ti2 O5 . . 2.14(2) yes
Ti2 O8 . 1_556 1.924(15) yes
Ti2 O10 . 1_565 1.75(2) yes
Ti2 O19 . 7_666 1.97(2) yes
Al1 O8 . 4_565 1.716(17) yes
Al1 O5 . 6_646 1.78(3) yes
Al2 O4 . 1_556 1.92(2) yes
Al2 O7 . 3_666 2.01(3) yes
Al2 O18 . 3_666 1.78(3) yes
Al2 O14 . 3_667 1.90(2) yes
Al2 O5 . 6_646 1.971(18) yes
Al2 O4 . 7_656 1.98(2) yes
Al3 O2 . . 1.72(2) yes
Al3 O11 . . 1.80(2) yes
Al3 O12 . . 1.793(17) yes
Al3 O6 . 1_554 1.781(18) yes
Al4 O6 . . 1.923(16) yes
Al4 O6 . 2_656 1.923(16) yes
Al4 O11 . 3_666 1.90(3) yes
Al4 O15 . 3_666 1.86(3) yes
Al4 O11 . 4_565 1.90(3) yes
Al4 O15 . 4_565 1.86(3) yes
Al5 O1 . . 1.79(3) yes
Al5 O6 . . 2.03(3) yes
Al5 O19 . 1_556 1.75(2) yes
Al5 O16 . 3_666 1.80(3) yes
Al5 O17 . 3_666 1.93(3) yes
Al5 O15 . 4_565 1.90(2) yes
Al6 O14 . . 1.83(3) yes
Al6 O12 . 1_556 1.894(18) yes
Al6 O11 . 3_666 1.95(3) yes
Al6 O15 . 3_666 2.14(3) yes
Al6 O17 . 4_565 1.930(16) yes
Al6 O10 . 5_455 1.88(3) yes
Al7 O6 . . 2.03(3) yes
Al7 O12 . 3_666 1.99(3) yes
Al7 O17 . 3_666 2.02(3) yes
Al7 O18 . 3_666 1.87(3) yes
Al7 O11 . 4_565 1.93(2) yes
Al7 O10 . 7_657 1.91(2) yes
Al8 O4 . . 1.955(16) yes
Al8 O9 . 3_666 1.92(2) yes
Al8 O14 . 3_666 1.96(2) yes
Al8 O1 . 4_564 1.800(17) yes
Al8 O5 . 4_564 1.94(3) yes
Al8 O13 . 5_545 1.98(3) yes
Al9 O1 . . 1.84(3) yes
Al9 O8 . 1_556 1.88(2) yes
Al9 O4 . 1_566 1.97(2) yes
Al9 O7 . 3_676 2.03(3) yes
Al9 O9 . 3_677 1.91(2) yes
Al10 O15 . 3_666 1.86(3) yes
Al10 O16 . 3_666 1.915(15) yes
Al10 O3 . 3_676 1.92(3) yes
Al10 O15 . 4_565 1.86(3) yes
Al10 O16 . 4_565 1.915(15) yes
Al10 O3 . 4_575 1.92(3) yes

loop_
_geom_angle_atom_site_label_1
_geom_angle_atom_site_label_2
_geom_angle_atom_site_label_3
_geom_angle_site_symmetry_1
_geom_angle_site_symmetry_2
_geom_angle_site_symmetry_3
_geom_angle
_geom_angle_publ_flag
O2 La1 O3 . . . 57.1(7) yes
O2 La1 O7 . . . 122.8(7) yes
O2 La1 O12 . . . 62.6(6) yes
O2 La1 O9 . . 1_554 172.0(7) yes
O2 La1 O14 . . 1_554 122.5(7) yes
O2 La1 O16 . . 1_565 115.4(6) yes
O2 La1 O2 . . 2_655 62.2(6) yes
O2 La1 O3 . . 2_655 87.0(6) yes
O2 La1 O3 . . 3_675 113.5(7) yes
O3 La1 O7 . . . 120.1(7) yes
O3 La1 O12 . . . 119.7(6) yes
O3 La1 O9 . . 1_554 116.6(7) yes
O3 La1 O14 . . 1_554 175.5(6) yes
O3 La1 O16 . . 1_565 58.3(6) yes
O2 La1 O3 2_655 . . 86.1(6) yes
O3 La1 O3 . . 2_655 59.7(7) yes
O3 La1 O3 . . 3_675 83.3(6) yes
O7 La1 O12 . . . 93.3(8) yes
O7 La1 O9 . . 1_554 64.1(7) yes
O7 La1 O14 . . 1_554 64.2(7) yes
O7 La1 O16 . . 1_565 87.3(8) yes
O2 La1 O7 2_655 . . 60.6(6) yes
O3 La1 O7 2_655 . . 60.5(7) yes
O3 La1 O7 3_675 . . 123.2(8) yes
O9 La1 O12 1_554 . . 123.2(6) yes
O12 La1 O14 . . 1_554 60.0(6) yes
O12 La1 O16 . . 1_565 177.8(5) yes
O2 La1 O12 2_655 . . 67.7(6) yes
O3 La1 O12 2_655 . . 120.5(5) yes
O3 La1 O12 3_675 . . 120.4(6) yes
O9 La1 O14 1_554 . 1_554 63.4(7) yes
O9 La1 O16 1_554 . 1_565 58.9(6) yes
O2 La1 O9 2_655 . 1_554 124.2(6) yes
O3 La1 O9 2_655 . 1_554 93.7(6) yes
O3 La1 O9 3_675 . 1_554 59.3(7) yes
O14 La1 O16 1_554 . 1_565 122.2(6) yes
O2 La1 O14 2_655 . 1_554 97.6(6) yes
O3 La1 O14 2_655 . 1_554 124.6(7) yes
O3 La1 O14 3_675 . 1_554 93.1(7) yes
O2 La1 O16 2_655 . 1_565 110.9(5) yes
O3 La1 O16 2_655 . 1_565 58.1(5) yes
O3 La1 O16 3_675 . 1_565 60.8(5) yes
O2 La1 O3 2_655 . 2_655 52.8(6) yes
O2 La1 O3 2_655 . 3_675 169.1(7) yes
O3 La1 O3 2_655 . 3_675 118.5(6) yes
O2 Ti1 O3 . . . 84.2(10) yes
O2 Ti1 O19 . . . 87.2(10) yes
O2 Ti1 O7 . . 2_655 92.8(10) yes
O2 Ti1 O16 . . 3_665 82.2(9) yes
O2 Ti1 O9 . . 3_676 168.3(9) yes
O3 Ti1 O19 . . . 160.8(9) yes
O3 Ti1 O7 . . 2_655 95.7(10) yes
O3 Ti1 O16 . . 3_665 87.6(9) yes
O3 Ti1 O9 . . 3_676 92.2(11) yes
O7 Ti1 O19 2_655 . . 101.8(11) yes
O16 Ti1 O19 3_665 . . 74.3(10) yes
O9 Ti1 O19 3_676 . . 92.8(10) yes
O7 Ti1 O16 2_655 . 3_665 173.7(14) yes
O7 Ti1 O9 2_655 . 3_676 98.6(10) yes
O9 Ti1 O16 3_676 . 3_665 86.6(9) yes
O5 Ti2 O8 . . 1_556 92.8(7) yes
O5 Ti2 O10 . . 1_565 168.5(10) yes
O5 Ti2 O19 . . 7_666 92.0(10) yes
O8 Ti2 O10 1_556 . 1_565 90.6(9) yes
O8 Ti2 O19 1_556 . 7_666 95.8(9) yes
O10 Ti2 O19 1_565 . 7_666 98.6(10) yes
O5 Al1 O8 6_646 . 4_565 120.3(11) yes
O4 Al2 O7 1_556 . 3_666 84.9(10) yes
O4 Al2 O18 1_556 . 3_666 173.6(11) yes
O4 Al2 O14 1_556 . 3_667 86.5(9) yes
O4 Al2 O5 1_556 . 6_646 90.8(10) yes
O4 Al2 O4 1_556 . 7_656 85.2(9) yes
O7 Al2 O18 3_666 . 3_666 90.7(13) yes
O7 Al2 O14 3_666 . 3_667 87.1(9) yes
O5 Al2 O7 6_646 . 3_666 88.1(9) yes
O4 Al2 O7 7_656 . 3_666 165.2(9) yes
O14 Al2 O18 3_667 . 3_666 98.0(9) yes
O5 Al2 O18 6_646 . 3_666 84.3(10) yes
O4 Al2 O18 7_656 . 3_666 98.2(13) yes
O5 Al2 O14 6_646 . 3_667 174.7(13) yes
O4 Al2 O14 7_656 . 3_667 103.3(9) yes
O4 Al2 O5 7_656 . 6_646 81.0(9) yes
O2 Al3 O11 . . . 117.8(11) yes
O2 Al3 O12 . . . 101.7(13) yes
O2 Al3 O6 . . 1_554 108.4(13) yes
O11 Al3 O12 . . . 108.1(13) yes
O6 Al3 O11 1_554 . . 114.0(13) yes
O6 Al3 O12 1_554 . . 105.5(8) yes
O6 Al4 O6 . . 2_656 178.5(17) yes
O6 Al4 O11 . . 3_666 95.1(10) yes
O6 Al4 O15 . . 3_666 94.7(11) yes
O6 Al4 O11 . . 4_565 85.9(10) yes
O6 Al4 O15 . . 4_565 84.2(11) yes
O6 Al4 O11 2_656 . 3_666 85.9(10) yes
O6 Al4 O15 2_656 . 3_666 84.2(11) yes
O6 Al4 O11 2_656 . 4_565 95.1(10) yes
O6 Al4 O15 2_656 . 4_565 94.7(11) yes
O11 Al4 O15 3_666 . 3_666 92.9(10) yes
O11 Al4 O11 3_666 . 4_565 94.3(13) yes
O11 Al4 O15 3_666 . 4_565 172.7(12) yes
O11 Al4 O15 4_565 . 3_666 172.7(12) yes
O15 Al4 O15 3_666 . 4_565 80.0(12) yes
O11 Al4 O15 4_565 . 4_565 92.9(10) yes
O1 Al5 O6 . . . 175.6(14) yes
O1 Al5 O19 . . 1_556 97.5(10) yes
O1 Al5 O16 . . 3_666 95.9(15) yes
O1 Al5 O17 . . 3_666 91.2(14) yes
O1 Al5 O15 . . 4_565 99.7(9) yes
O6 Al5 O19 . . 1_556 83.4(9) yes
O6 Al5 O16 . . 3_666 88.4(12) yes
O6 Al5 O17 . . 3_666 84.4(11) yes
O6 Al5 O15 . . 4_565 80.1(9) yes
O16 Al5 O19 3_666 . 1_556 88.9(10) yes
O17 Al5 O19 3_666 . 1_556 96.0(10) yes
O15 Al5 O19 4_565 . 1_556 161.5(12) yes
O16 Al5 O17 3_666 . 3_666 170.8(11) yes
O15 Al5 O16 4_565 . 3_666 82.3(9) yes
O15 Al5 O17 4_565 . 3_666 90.8(9) yes
O12 Al6 O14 1_556 . . 88.1(11) yes
O11 Al6 O14 3_666 . . 175.3(13) yes
O14 Al6 O15 . . 3_666 92.1(12) yes
O14 Al6 O17 . . 4_565 94.0(11) yes
O10 Al6 O14 5_455 . . 93.8(10) yes
O11 Al6 O12 3_666 . 1_556 92.6(11) yes
O12 Al6 O15 1_556 . 3_666 93.0(10) yes
O12 Al6 O17 1_556 . 4_565 176.3(9) yes
O10 Al6 O12 5_455 . 1_556 90.7(11) yes
O11 Al6 O15 3_666 . 3_666 83.3(9) yes
O11 Al6 O17 3_666 . 4_565 85.0(11) yes
O10 Al6 O11 5_455 . 3_666 90.8(12) yes
O15 Al6 O17 3_666 . 4_565 83.8(10) yes
O10 Al6 O15 5_455 . 3_666 173.2(11) yes
O10 Al6 O17 5_455 . 4_565 92.3(11) yes
O6 Al7 O12 . . 3_666 88.8(11) yes
O6 Al7 O17 . . 3_666 82.2(10) yes
O6 Al7 O18 . . 3_666 174.6(12) yes
O6 Al7 O11 . . 4_565 82.5(9) yes
O6 Al7 O10 . . 7_657 88.3(9) yes
O12 Al7 O17 3_666 . 3_666 170.7(11) yes
O12 Al7 O18 3_666 . 3_666 95.1(14) yes
O11 Al7 O12 4_565 . 3_666 93.1(9) yes
O10 Al7 O12 7_657 . 3_666 87.1(9) yes
O17 Al7 O18 3_666 . 3_666 93.7(13) yes
O11 Al7 O17 4_565 . 3_666 83.4(9) yes
O10 Al7 O17 7_657 . 3_666 95.0(9) yes
O11 Al7 O18 4_565 . 3_666 93.7(10) yes
O10 Al7 O18 7_657 . 3_666 95.5(9) yes
O10 Al7 O11 7_657 . 4_565 170.8(11) yes
O4 Al8 O9 . . 3_666 85.2(9) yes
O4 Al8 O14 . . 3_666 84.0(9) yes
O1 Al8 O4 4_564 . . 176.5(10) yes
O4 Al8 O5 . . 4_564 82.5(8) yes
O4 Al8 O13 . . 5_545 91.5(8) yes
O9 Al8 O14 3_666 . 3_666 91.0(9) yes
O1 Al8 O9 4_564 . 3_666 97.7(14) yes
O5 Al8 O9 4_564 . 3_666 164.9(11) yes
O9 Al8 O13 3_666 . 5_545 88.5(12) yes
O1 Al8 O14 4_564 . 3_666 97.9(13) yes
O5 Al8 O14 4_564 . 3_666 96.4(12) yes
O13 Al8 O14 5_545 . 3_666 175.4(9) yes
O1 Al8 O5 4_564 . 4_564 94.3(12) yes
O1 Al8 O13 4_564 . 5_545 86.7(12) yes
O5 Al8 O13 4_564 . 5_545 83.1(11) yes
O1 Al9 O8 . . 1_556 95.2(12) yes
O1 Al9 O4 . . 1_566 175.4(12) yes
O1 Al9 O7 . . 3_676 93.5(13) yes
O1 Al9 O9 . . 3_677 98.0(9) yes
O4 Al9 O8 1_566 . 1_556 88.0(9) yes
O7 Al9 O8 3_676 . 1_556 168.7(10) yes
O8 Al9 O9 1_556 . 3_677 94.6(9) yes
O4 Al9 O7 1_566 . 3_676 82.9(9) yes
O4 Al9 O9 1_566 . 3_677 85.0(9) yes
O7 Al9 O9 3_676 . 3_677 91.2(9) yes
O15 Al10 O16 3_666 . 3_666 92.8(11) yes
O3 Al10 O15 3_676 . 3_666 93.0(10) yes
O15 Al10 O15 3_666 . 4_565 79.9(11) yes
O15 Al10 O16 3_666 . 4_565 80.3(11) yes
O3 Al10 O15 4_575 . 3_666 168.7(10) yes
O3 Al10 O16 3_676 . 3_666 91.3(10) yes
O15 Al10 O16 4_565 . 3_666 80.3(11) yes
O16 Al10 O16 3_666 . 4_565 171.1(17) yes
O3 Al10 O16 4_575 . 3_666 94.7(10) yes
O3 Al10 O15 3_676 . 4_565 168.7(10) yes
O3 Al10 O16 3_676 . 4_565 94.7(10) yes
O3 Al10 O3 3_676 . 4_575 95.4(12) yes
O15 Al10 O16 4_565 . 4_565 92.8(11) yes
O3 Al10 O15 4_575 . 4_565 93.0(10) yes
O3 Al10 O16 4_575 . 4_565 91.3(10) yes
Al5 O1 Al9 . . . 127.9(9) yes
Al5 O1 Al8 . . 4_565 131(2) yes
Al8 O1 Al9 4_565 . . 99.5(14) yes
La1 O2 Ti1 . . . 103.0(9) yes
La1 O2 Al3 . . . 96.7(9) yes
La1 O2 La1 . . 2_655 96.4(7) yes
Ti1 O2 Al3 . . . 128.0(12) yes
La1 O2 Ti1 2_655 . . 87.7(8) yes
La1 O2 Al3 2_655 . . 137.5(11) yes
La1 O3 Ti1 . . . 97.2(9) yes
La1 O3 La1 . . 2_655 90.2(7) yes
La1 O3 La1 . . 3_675 96.7(6) yes
La1 O3 Al10 . . 3_676 90.8(9) yes
La1 O3 Ti1 2_655 . . 84.5(7) yes
La1 O3 Ti1 3_675 . . 93.6(8) yes
Ti1 O3 Al10 . . 3_676 167.3(12) yes
La1 O3 La1 2_655 . 3_675 173.0(9) yes
La1 O3 Al10 2_655 . 3_676 85.7(7) yes
La1 O3 Al10 3_675 . 3_676 95.2(9) yes
Al8 O4 Al9 . . 1_544 93.3(9) yes
Al2 O4 Al8 1_554 . . 94.3(8) yes
Al2 O4 Al8 7_656 . . 97.7(8) yes
Al2 O4 Al9 1_554 . 1_544 98.5(7) yes
Al2 O4 Al9 7_656 . 1_544 162.0(11) yes
Al2 O4 Al2 1_554 . 7_656 94.8(10) yes
Ti2 O5 Al8 . . 4_565 98.8(15) yes
Ti2 O5 Al1 . . 6_656 117.4(8) yes
Ti2 O5 Al2 . . 6_656 93.6(9) yes
Al1 O5 Al8 6_656 . 4_565 115.5(9) yes
Al2 O5 Al8 6_656 . 4_565 98.6(10) yes
Al1 O5 Al2 6_656 . 6_656 127.4(17) yes
Al4 O6 Al5 . . . 94.3(10) yes
Al4 O6 Al7 . . . 93.6(11) yes
Al3 O6 Al4 1_556 . . 125.1(9) yes
Al5 O6 Al7 . . . 94.6(8) yes
Al3 O6 Al5 1_556 . . 121.7(15) yes
Al3 O6 Al7 1_556 . . 119.9(15) yes
La1 O7 Ti1 . . 2_655 97.4(6) yes
La1 O7 Al2 . . 3_666 100.1(9) yes
La1 O7 Al9 . . 3_676 102.1(9) yes
Ti1 O7 Al2 2_655 . 3_666 131.2(16) yes
Ti1 O7 Al9 2_655 . 3_676 126.3(16) yes
Al2 O7 Al9 3_666 . 3_676 93.8(7) yes
Ti2 O8 Al9 1_554 . 1_554 101.1(9) yes
Ti2 O8 Al1 1_554 . 4_564 127.5(9) yes
Al1 O8 Al9 4_564 . 1_554 125.7(11) yes
La1 O9 Al8 1_556 . 3_666 97.7(9) yes
La1 O9 Ti1 1_556 . 3_676 94.6(9) yes
La1 O9 Al9 1_556 . 3_677 99.4(8) yes
Ti1 O9 Al8 3_676 . 3_666 127.6(11) yes
Al8 O9 Al9 3_666 . 3_677 96.4(11) yes
Ti1 O9 Al9 3_676 . 3_677 131.4(13) yes
Ti2 O10 Al6 1_545 . 5_545 134.3(12) yes
Ti2 O10 Al7 1_545 . 7_657 127.0(12) yes
Al6 O10 Al7 5_545 . 7_657 92.4(10) yes
Al3 O11 Al4 . . 3_666 124.6(14) yes
Al3 O11 Al6 . . 3_666 118.1(12) yes
Al3 O11 Al7 . . 4_564 119.9(12) yes
Al4 O11 Al6 3_666 . 3_666 93.7(11) yes
Al4 O11 Al7 3_666 . 4_564 97.6(10) yes
Al6 O11 Al7 3_666 . 4_564 96.6(11) yes
La1 O12 Al3 . . . 92.6(12) yes
La1 O12 Al6 . . 1_554 90.1(12) yes
La1 O12 Al7 . . 3_666 128.3(10) yes
Al3 O12 Al6 . . 1_554 128.5(10) yes
Al3 O12 Al7 . . 3_666 126.3(15) yes
Al6 O12 Al7 1_554 . 3_666 89.4(10) yes
Al1 O13 Al8 8_454 . 5_455 123.2(10) yes
La1 O14 Al6 1_556 . . 96.4(10) yes
Al6 O14 Al8 . . 3_666 126.1(11) yes
Al2 O14 Al6 3_667 . . 127.0(13) yes
La1 O14 Al8 1_556 . 3_666 104.6(10) yes
La1 O14 Al2 1_556 . 3_667 105.0(9) yes
Al2 O14 Al8 3_667 . 3_666 94.7(10) yes
Al4 O15 Al6 3_666 . 3_666 89.2(10) yes
Al4 O15 Al10 3_666 . 3_666 100.1(11) yes
Al4 O15 Al5 3_666 . 4_564 101.1(10) yes
Al6 O15 Al10 3_666 . 3_666 167.4(12) yes
Al5 O15 Al6 4_564 . 3_666 89.2(10) yes
Al5 O15 Al10 4_564 . 3_666 97.3(10) yes
La1 O16 Ti1 1_545 . 3_665 84.3(9) yes
La1 O16 Al5 1_545 . 3_666 133.2(11) yes
La1 O16 Al10 1_545 . 3_666 87.7(11) yes
Ti1 O16 Al5 3_665 . 3_666 92.7(9) yes
Ti1 O16 Al10 3_665 . 3_666 168.4(15) yes
Al5 O16 Al10 3_666 . 3_666 98.9(10) yes
Al5 O17 Al7 3_666 . 3_666 98.2(7) yes
Al5 O17 Al6 3_666 . 4_564 94.9(11) yes
Al1 O17 Al5 8_454 . 3_666 121.4(15) yes
Al6 O17 Al7 4_564 . 3_666 94.3(11) yes
Al1 O17 Al7 8_454 . 3_666 119.0(15) yes
Al1 O17 Al6 8_454 . 4_564 122.7(8) yes
Al2 O18 Al7 3_666 . 3_666 123.8(10) yes
Ti1 O19 Al5 . . 1_554 103.0(11) yes
Ti1 O19 Ti2 . . 7_666 126.2(10) yes
Ti2 O19 Al5 7_666 . 1_554 129.2(12) yes

